
                                 *****************
                                 * O   R   C   A *
                                 *****************

                                            #,                                       
                                            ###                                      
                                            ####                                     
                                            #####                                    
                                            ######                                   
                                           ########,                                 
                                     ,,################,,,,,                         
                               ,,#################################,,                 
                          ,,##########################################,,             
                       ,#########################################, ''#####,          
                    ,#############################################,,   '####,        
                  ,##################################################,,,,####,       
                ,###########''''           ''''###############################       
              ,#####''   ,,,,##########,,,,          '''####'''          '####       
            ,##' ,,,,###########################,,,                        '##       
           ' ,,###''''                  '''############,,,                           
         ,,##''                                '''############,,,,        ,,,,,,###''
      ,#''                                            '''#######################'''  
     '                                                          ''''####''''         
             ,#######,   #######,   ,#######,      ##                                
            ,#'     '#,  ##    ##  ,#'     '#,    #''#        ######   ,####,        
            ##       ##  ##   ,#'  ##            #'  '#       #        #'  '#        
            ##       ##  #######   ##           ,######,      #####,   #    #        
            '#,     ,#'  ##    ##  '#,     ,#' ,#      #,         ##   #,  ,#        
             '#######'   ##     ##  '#######'  #'      '#     #####' # '####'        



                  #######################################################
                  #                        -***-                        #
                  #          Department of theory and spectroscopy      #
                  #    Directorship and core code : Frank Neese         #
                  #        Max Planck Institute fuer Kohlenforschung    #
                  #                Kaiser Wilhelm Platz 1               #
                  #                 D-45470 Muelheim/Ruhr               #
                  #                      Germany                        #
                  #                                                     #
                  #                  All rights reserved                #
                  #                        -***-                        #
                  #######################################################


                         Program Version 5.0.1 -  RELEASE  -


 With contributions from (in alphabetic order):
   Daniel Aravena         : Magnetic Suceptibility
   Michael Atanasov       : Ab Initio Ligand Field Theory (pilot matlab implementation)
   Alexander A. Auer      : GIAO ZORA, VPT2 properties, NMR spectrum
   Ute Becker             : Parallelization
   Giovanni Bistoni       : ED, misc. LED, open-shell LED, HFLD
   Martin Brehm           : Molecular dynamics
   Dmytro Bykov           : SCF Hessian
   Vijay G. Chilkuri      : MRCI spin determinant printing, contributions to CSF-ICE
   Dipayan Datta          : RHF DLPNO-CCSD density
   Achintya Kumar Dutta   : EOM-CC, STEOM-CC
   Dmitry Ganyushin       : Spin-Orbit,Spin-Spin,Magnetic field MRCI
   Miquel Garcia          : C-PCM and meta-GGA Hessian, CC/C-PCM, Gaussian charge scheme
   Yang Guo               : DLPNO-NEVPT2, F12-NEVPT2, CIM, IAO-localization
   Andreas Hansen         : Spin unrestricted coupled pair/coupled cluster methods
   Benjamin Helmich-Paris : MC-RPA, TRAH-SCF, COSX integrals
   Lee Huntington         : MR-EOM, pCC
   Robert Izsak           : Overlap fitted RIJCOSX, COSX-SCS-MP3, EOM
   Marcus Kettner         : VPT2
   Christian Kollmar      : KDIIS, OOCD, Brueckner-CCSD(T), CCSD density, CASPT2, CASPT2-K
   Simone Kossmann        : Meta GGA functionals, TD-DFT gradient, OOMP2, MP2 Hessian
   Martin Krupicka        : Initial AUTO-CI
   Lucas Lang             : DCDCAS
   Marvin Lechner         : AUTO-CI (C++ implementation), FIC-MRCC
   Dagmar Lenk            : GEPOL surface, SMD
   Dimitrios Liakos       : Extrapolation schemes; Compound Job, initial MDCI parallelization
   Dimitrios Manganas     : Further ROCIS development; embedding schemes
   Dimitrios Pantazis     : SARC Basis sets
   Anastasios Papadopoulos: AUTO-CI, single reference methods and gradients
   Taras Petrenko         : DFT Hessian,TD-DFT gradient, ASA, ECA, R-Raman, ABS, FL, XAS/XES, NRVS
   Peter Pinski           : DLPNO-MP2, DLPNO-MP2 Gradient
   Christoph Reimann      : Effective Core Potentials
   Marius Retegan         : Local ZFS, SOC
   Christoph Riplinger    : Optimizer, TS searches, QM/MM, DLPNO-CCSD(T), (RO)-DLPNO pert. Triples
   Tobias Risthaus        : Range-separated hybrids, TD-DFT gradient, RPA, STAB
   Michael Roemelt        : Original ROCIS implementation
   Masaaki Saitow         : Open-shell DLPNO-CCSD energy and density
   Barbara Sandhoefer     : DKH picture change effects
   Avijit Sen             : IP-ROCIS
   Kantharuban Sivalingam : CASSCF convergence, NEVPT2, FIC-MRCI
   Bernardo de Souza      : ESD, SOC TD-DFT
   Georgi Stoychev        : AutoAux, RI-MP2 NMR, DLPNO-MP2 response
   Willem Van den Heuvel  : Paramagnetic NMR
   Boris Wezisla          : Elementary symmetry handling
   Frank Wennmohs         : Technical directorship


 We gratefully acknowledge several colleagues who have allowed us to
 interface, adapt or use parts of their codes:
   Stefan Grimme, W. Hujo, H. Kruse, P. Pracht,  : VdW corrections, initial TS optimization,
                  C. Bannwarth, S. Ehlert          DFT functionals, gCP, sTDA/sTD-DF
   Ed Valeev, F. Pavosevic, A. Kumar             : LibInt (2-el integral package), F12 methods
   Garnet Chan, S. Sharma, J. Yang, R. Olivares  : DMRG
   Ulf Ekstrom                                   : XCFun DFT Library
   Mihaly Kallay                                 : mrcc  (arbitrary order and MRCC methods)
   Jiri Pittner, Ondrej Demel                    : Mk-CCSD
   Frank Weinhold                                : gennbo (NPA and NBO analysis)
   Christopher J. Cramer and Donald G. Truhlar   : smd solvation model
   Lars Goerigk                                  : TD-DFT with DH, B97 family of functionals
   V. Asgeirsson, H. Jonsson                     : NEB implementation
   FAccTs GmbH                                   : IRC, NEB, NEB-TS, DLPNO-Multilevel, CI-OPT
                                                   MM, QMMM, 2- and 3-layer-ONIOM, Crystal-QMMM,
                                                   LR-CPCM, SF, NACMEs, symmetry and pop. for TD-DFT,
                                                   nearIR, NL-DFT gradient (VV10), updates on ESD,
                                                   ML-optimized integration grids
   S Lehtola, MJT Oliveira, MAL Marques          : LibXC Library
   Liviu Ungur et al                             : ANISO software


 Your calculation uses the libint2 library for the computation of 2-el integrals
 For citations please refer to: http://libint.valeyev.net

 Your ORCA version has been built with support for libXC version: 5.1.0
 For citations please refer to: https://tddft.org/programs/libxc/

 This ORCA versions uses:
   CBLAS   interface :  Fast vector & matrix operations
   LAPACKE interface :  Fast linear algebra routines
   SCALAPACK package :  Parallel linear algebra routines
   Shared memory     :  Shared parallel matrices
   BLAS/LAPACK       :  OpenBLAS 0.3.15  USE64BITINT DYNAMIC_ARCH NO_AFFINITY Zen SINGLE_THREADED
        Core in use  :  Zen
   Copyright (c) 2011-2014, The OpenBLAS Project


Your calculation utilizes the atom-pairwise dispersion correction
based on tight binding partial charges (D4)
Cite in your paper:
E.Caldeweyher, C.Bannwarth, S.Grimme, J.Chem.Phys., (2017), 147, 034112.
E.Caldeweyher, S.Ehlert, A.Hansen, H.Neugebauer, S.Grimme, J.Chem.Phys., (2018), in progress.
   

================================================================================

----- Orbital basis set information -----
Your calculation utilizes the basis: def2-SVP
   F. Weigend and R. Ahlrichs, Phys. Chem. Chem. Phys. 7, 3297 (2005).

----- AuxJ basis set information -----
Your calculation utilizes the auxiliary basis: def2/J
   F. Weigend, Phys. Chem. Chem. Phys. 8, 1057 (2006).

================================================================================
                                        WARNINGS
                       Please study these warnings very carefully!
================================================================================


INFO   : the flag for use of the SHARK integral package has been found!

================================================================================
                                       INPUT FILE
================================================================================
NAME = aBiCyDNH_orca.inp
|  1> ! Freq PBE0 def2-SVP def2/J RIJCOSX D4
|  2> %output 
|  3> xyzfile=True 
|  4> end 
|  5> %scf 
|  6> maxiter 250 
|  7> end
|  8> %output
|  9> Print[P_Hirshfeld] = 1
| 10> end
| 11> % maxcore
| 12> 4000
| 13> %pal nprocs 36
| 14> end
| 15> *xyz 0 1
| 16> C   28.24444684  -19.22401021 -16.17495160
| 17> C   27.55657231  -20.30062815 -17.03204978
| 18> C   28.42564091  -20.69094172 -18.22281529
| 19> C   28.85158904  -19.44816324 -19.02060458
| 20> C   29.55322009  -18.48959127 -18.04063331
| 21> C   30.10439791  -17.19055411 -18.64850562
| 22> O   27.26509668  -21.46841876 -16.26037763
| 23> O   27.68445321  -21.63660752 -18.97422852
| 24> O   29.75955819  -19.83860640 -20.04106270
| 25> O   28.59761941  -18.14394909 -17.01913073
| 26> H   27.57073859  -18.80508931 -15.40013771
| 27> H   26.60681538  -19.85963941 -17.41668232
| 28> H   29.36225257  -21.15008753 -17.82658228
| 29> H   27.95867063  -18.94394323 -19.45983255
| 30> H   30.40878503  -19.03305620 -17.58336870
| 31> H   26.99506830  -22.12687163 -16.94030192
| 32> H   28.32637241  -22.14762493 -19.53438380
| 33> C   31.64809444  -20.94356262 -12.54385965
| 34> C   30.87453892  -22.09909253 -13.17769876
| 35> C   30.22315924  -21.59988160 -14.46125547
| 36> C   29.43533122  -20.29200797 -14.27963327
| 37> C   30.08307724  -19.28749949 -13.29199927
| 38> C   29.08222691  -18.31306524 -12.66326975
| 39> O   31.78082293  -23.16597621 -13.46721575
| 40> O   29.44490152  -22.65417310 -14.99252944
| 41> O   29.43118564  -19.70889777 -15.59066044
| 42> O   30.72883953  -19.93000776 -12.16056034
| 43> O   28.32390971  -17.61902424 -13.63298805
| 44> H   32.17143892  -21.26105951 -11.61461543
| 45> H   30.09133326  -22.43630035 -12.46037657
| 46> H   31.06192466  -21.33757951 -15.14841254
| 47> H   28.40099592  -20.53803744 -13.95134890
| 48> H   30.84923874  -18.71845190 -13.86171200
| 49> H   28.37031604  -18.88560624 -12.03144701
| 50> H   29.64424194  -17.62181059 -11.99332159
| 51> H   31.29878864  -23.75099340 -14.08827134
| 52> H   28.70356247  -22.25741721 -15.52161130
| 53> H   28.95889587  -17.07654526 -14.15161830
| 54> C   36.28565652  -19.25313181 -14.50570016
| 55> C   36.14803850  -20.75766030 -14.20561179
| 56> C   34.67132927  -21.10694687 -14.20662948
| 57> C   33.91868445  -20.23896897 -13.20131056
| 58> C   34.25006063  -18.73826492 -13.33010180
| 59> C   33.83002363  -17.90477763 -12.10641738
| 60> O   36.83579355  -21.55528038 -15.16484411
| 61> O   34.54697456  -22.48915705 -13.93375267
| 62> O   32.54027332  -20.45010501 -13.49792980
| 63> O   35.67010241  -18.53074927 -13.45718345
| 64> O   32.44461590  -17.69443937 -11.97378508
| 65> H   37.35236043  -18.94516705 -14.50549842
| 66> H   36.57320158  -20.93245182 -13.18941625
| 67> H   34.27263585  -20.85110367 -15.21687672
| 68> H   34.15261206  -20.60169918 -12.17216521
| 69> H   33.72557654  -18.35599125 -14.23419953
| 70> H   34.28635831  -18.36917386 -11.19589178
| 71> H   34.30587800  -16.90831385 -12.21978421
| 72> H   36.38987060  -22.42919673 -15.14444481
| 73> H   31.97431694  -18.54489917 -11.81385444
| 74> C   37.00809984  -17.77969568 -19.54500364
| 75> C   37.97856612  -18.64949137 -18.73388141
| 76> C   37.25556939  -19.32019259 -17.56579051
| 77> C   36.47260298  -18.29186449 -16.73234098
| 78> C   35.54761535  -17.50055798 -17.67537985
| 79> C   34.75389707  -16.36164670 -17.01107488
| 80> O   38.56783050  -19.64915375 -19.56537092
| 81> O   38.25006952  -20.02011949 -16.83886011
| 82> O   35.67968339  -18.95480612 -15.74814936
| 83> O   36.37482738  -16.87565480 -18.66647779
| 84> H   37.52602971  -17.15117394 -20.29688193
| 85> H   38.77069271  -17.98350487 -18.31711558
| 86> H   36.50081586  -20.02369448 -17.99189031
| 87> H   37.18448815  -17.58602472 -16.24183530
| 88> H   34.84358528  -18.20417265 -18.16710587
| 89> H   38.98612731  -20.26583174 -18.92429312
| 90> H   37.79413497  -20.71635857 -16.29686629
| 91> C   34.01521678  -19.76212469 -23.43344309
| 92> C   35.23308152  -20.64075734 -23.13065509
| 93> C   35.78994913  -20.26544858 -21.76230531
| 94> C   35.98224980  -18.75347923 -21.57025132
| 95> C   34.80327728  -17.92678136 -22.11312191
| 96> C   35.06237747  -16.42278208 -22.25199760
| 97> O   34.81996648  -22.00826825 -23.14565041
| 98> O   36.98520850  -20.99040503 -21.55910810
| 99> O   36.06500890  -18.62678782 -20.14915560
|100> O   34.40837704  -18.39532019 -23.43569963
|101> O   35.41631017  -15.83278743 -21.02814115
|102> H   33.59959406  -19.97256243 -24.44401528
|103> H   36.00560681  -20.45208068 -23.91207184
|104> H   35.00739724  -20.55486385 -21.01976749
|105> H   36.93800117  -18.44199750 -22.05111802
|106> H   33.96119528  -18.08243136 -21.40921879
|107> H   35.90064696  -16.26260510 -22.96650766
|108> H   34.15205502  -15.96205368 -22.70555843
|109> H   35.55509978  -22.49996219 -22.72465068
|110> H   37.44781391  -20.59640167 -20.77386348
|111> H   34.73989423  -16.10365077 -20.35212624
|112> C   29.20721599  -20.24941657 -21.28021455
|113> C   29.84297305  -21.58933484 -21.68805864
|114> C   31.34508203  -21.38823279 -21.78272308
|115> C   31.69194593  -20.21146354 -22.70009436
|116> C   30.86181606  -18.94891596 -22.39170232
|117> C   30.93840124  -17.82150638 -23.43327303
|118> O   29.52232823  -22.59912815 -20.73219959
|119> O   31.94533112  -22.59157561 -22.22041433
|120> O   33.07509122  -20.00753619 -22.42909653
|121> O   29.46759497  -19.29153668 -22.28085596
|122> O   32.05567845  -16.98242088 -23.27758930
|123> H   28.10344224  -20.33857882 -21.20829133
|124> H   29.43713186  -21.86334008 -22.68971433
|125> H   31.69949874  -21.10439018 -20.76296320
|126> H   31.54257080  -20.52128599 -23.76181495
|127> H   31.22762163  -18.54635248 -21.42008180
|128> H   30.86319820  -18.25889969 -24.46043811
|129> H   30.02758489  -17.20411623 -23.28459556
|130> H   30.19843645  -23.30011298 -20.83377018
|131> H   32.90726695  -22.40775943 -22.36333380
|132> H   32.87258148  -17.47182866 -23.54597180
|133> C   31.11829626  -16.22143812 -16.53857409
|134> C   32.44312408  -16.14011428 -16.04148096
|135> N   31.20545270  -16.63626054 -17.87266958
|136> N   33.30378969  -16.49398314 -17.08021075
|137> C   32.56524746  -16.69058937 -18.25637010
|138> H   35.07898741  -15.41718515 -17.49882867
|139> H   35.01105622  -16.29801075 -15.93706135
|140> H   29.28467753  -16.44779399 -18.75154953
|141> H   30.48183643  -17.41137450 -19.66555708
|142> H   33.58214440  -22.72028710 -13.91660602
|143> C   32.69918488  -15.71185124 -14.73433106
|144> C   30.02791167  -15.82282599 -15.75886880
|145> N   33.10114830  -16.83085707 -19.42967339
|146> H   32.39210545  -16.88544180 -20.17370321
|147> C   31.60190592  -15.33893699 -13.93651377
|148> C   30.29147624  -15.36817859 -14.44736351
|149> H   31.77810985  -15.01127645 -12.90311572
|150> H   33.72302283  -15.64777920 -14.34100388
|151> H   29.45760395  -15.02002670 -13.81915924
|152> H   29.00807984  -15.86243094 -16.16195563
|153> *
|154> 
|155>                          ****END OF INPUT****
================================================================================

                       ****************************
                       * Single Point Calculation *
                       ****************************

---------------------------------
CARTESIAN COORDINATES (ANGSTROEM)
---------------------------------
  C     28.244447  -19.224010  -16.174952
  C     27.556572  -20.300628  -17.032050
  C     28.425641  -20.690942  -18.222815
  C     28.851589  -19.448163  -19.020605
  C     29.553220  -18.489591  -18.040633
  C     30.104398  -17.190554  -18.648506
  O     27.265097  -21.468419  -16.260378
  O     27.684453  -21.636608  -18.974229
  O     29.759558  -19.838606  -20.041063
  O     28.597619  -18.143949  -17.019131
  H     27.570739  -18.805089  -15.400138
  H     26.606815  -19.859639  -17.416682
  H     29.362253  -21.150088  -17.826582
  H     27.958671  -18.943943  -19.459833
  H     30.408785  -19.033056  -17.583369
  H     26.995068  -22.126872  -16.940302
  H     28.326372  -22.147625  -19.534384
  C     31.648094  -20.943563  -12.543860
  C     30.874539  -22.099093  -13.177699
  C     30.223159  -21.599882  -14.461255
  C     29.435331  -20.292008  -14.279633
  C     30.083077  -19.287499  -13.291999
  C     29.082227  -18.313065  -12.663270
  O     31.780823  -23.165976  -13.467216
  O     29.444902  -22.654173  -14.992529
  O     29.431186  -19.708898  -15.590660
  O     30.728840  -19.930008  -12.160560
  O     28.323910  -17.619024  -13.632988
  H     32.171439  -21.261060  -11.614615
  H     30.091333  -22.436300  -12.460377
  H     31.061925  -21.337580  -15.148413
  H     28.400996  -20.538037  -13.951349
  H     30.849239  -18.718452  -13.861712
  H     28.370316  -18.885606  -12.031447
  H     29.644242  -17.621811  -11.993322
  H     31.298789  -23.750993  -14.088271
  H     28.703562  -22.257417  -15.521611
  H     28.958896  -17.076545  -14.151618
  C     36.285657  -19.253132  -14.505700
  C     36.148038  -20.757660  -14.205612
  C     34.671329  -21.106947  -14.206629
  C     33.918684  -20.238969  -13.201311
  C     34.250061  -18.738265  -13.330102
  C     33.830024  -17.904778  -12.106417
  O     36.835794  -21.555280  -15.164844
  O     34.546975  -22.489157  -13.933753
  O     32.540273  -20.450105  -13.497930
  O     35.670102  -18.530749  -13.457183
  O     32.444616  -17.694439  -11.973785
  H     37.352360  -18.945167  -14.505498
  H     36.573202  -20.932452  -13.189416
  H     34.272636  -20.851104  -15.216877
  H     34.152612  -20.601699  -12.172165
  H     33.725577  -18.355991  -14.234200
  H     34.286358  -18.369174  -11.195892
  H     34.305878  -16.908314  -12.219784
  H     36.389871  -22.429197  -15.144445
  H     31.974317  -18.544899  -11.813854
  C     37.008100  -17.779696  -19.545004
  C     37.978566  -18.649491  -18.733881
  C     37.255569  -19.320193  -17.565791
  C     36.472603  -18.291864  -16.732341
  C     35.547615  -17.500558  -17.675380
  C     34.753897  -16.361647  -17.011075
  O     38.567830  -19.649154  -19.565371
  O     38.250070  -20.020119  -16.838860
  O     35.679683  -18.954806  -15.748149
  O     36.374827  -16.875655  -18.666478
  H     37.526030  -17.151174  -20.296882
  H     38.770693  -17.983505  -18.317116
  H     36.500816  -20.023694  -17.991890
  H     37.184488  -17.586025  -16.241835
  H     34.843585  -18.204173  -18.167106
  H     38.986127  -20.265832  -18.924293
  H     37.794135  -20.716359  -16.296866
  C     34.015217  -19.762125  -23.433443
  C     35.233082  -20.640757  -23.130655
  C     35.789949  -20.265449  -21.762305
  C     35.982250  -18.753479  -21.570251
  C     34.803277  -17.926781  -22.113122
  C     35.062377  -16.422782  -22.251998
  O     34.819966  -22.008268  -23.145650
  O     36.985208  -20.990405  -21.559108
  O     36.065009  -18.626788  -20.149156
  O     34.408377  -18.395320  -23.435700
  O     35.416310  -15.832787  -21.028141
  H     33.599594  -19.972562  -24.444015
  H     36.005607  -20.452081  -23.912072
  H     35.007397  -20.554864  -21.019767
  H     36.938001  -18.441997  -22.051118
  H     33.961195  -18.082431  -21.409219
  H     35.900647  -16.262605  -22.966508
  H     34.152055  -15.962054  -22.705558
  H     35.555100  -22.499962  -22.724651
  H     37.447814  -20.596402  -20.773863
  H     34.739894  -16.103651  -20.352126
  C     29.207216  -20.249417  -21.280215
  C     29.842973  -21.589335  -21.688059
  C     31.345082  -21.388233  -21.782723
  C     31.691946  -20.211464  -22.700094
  C     30.861816  -18.948916  -22.391702
  C     30.938401  -17.821506  -23.433273
  O     29.522328  -22.599128  -20.732200
  O     31.945331  -22.591576  -22.220414
  O     33.075091  -20.007536  -22.429097
  O     29.467595  -19.291537  -22.280856
  O     32.055678  -16.982421  -23.277589
  H     28.103442  -20.338579  -21.208291
  H     29.437132  -21.863340  -22.689714
  H     31.699499  -21.104390  -20.762963
  H     31.542571  -20.521286  -23.761815
  H     31.227622  -18.546352  -21.420082
  H     30.863198  -18.258900  -24.460438
  H     30.027585  -17.204116  -23.284596
  H     30.198436  -23.300113  -20.833770
  H     32.907267  -22.407759  -22.363334
  H     32.872581  -17.471829  -23.545972
  C     31.118296  -16.221438  -16.538574
  C     32.443124  -16.140114  -16.041481
  N     31.205453  -16.636261  -17.872670
  N     33.303790  -16.493983  -17.080211
  C     32.565247  -16.690589  -18.256370
  H     35.078987  -15.417185  -17.498829
  H     35.011056  -16.298011  -15.937061
  H     29.284678  -16.447794  -18.751550
  H     30.481836  -17.411375  -19.665557
  H     33.582144  -22.720287  -13.916606
  C     32.699185  -15.711851  -14.734331
  C     30.027912  -15.822826  -15.758869
  N     33.101148  -16.830857  -19.429673
  H     32.392105  -16.885442  -20.173703
  C     31.601906  -15.338937  -13.936514
  C     30.291476  -15.368179  -14.447364
  H     31.778110  -15.011276  -12.903116
  H     33.723023  -15.647779  -14.341004
  H     29.457604  -15.020027  -13.819159
  H     29.008080  -15.862431  -16.161956

----------------------------
CARTESIAN COORDINATES (A.U.)
----------------------------
  NO LB      ZA    FRAG     MASS         X           Y           Z
   0 C     6.0000    0    12.011   53.374269  -36.328114  -30.566229
   1 C     6.0000    0    12.011   52.074375  -38.362628  -32.185910
   2 C     6.0000    0    12.011   53.716677  -39.100213  -34.436130
   3 C     6.0000    0    12.011   54.521602  -36.751702  -35.943734
   4 C     6.0000    0    12.011   55.847492  -34.940264  -34.091856
   5 C     6.0000    0    12.011   56.889067  -32.485439  -35.240568
   6 O     8.0000    0    15.999   51.523566  -40.569432  -30.727661
   7 O     8.0000    0    15.999   52.316035  -40.887263  -35.856096
   8 O     8.0000    0    15.999   56.237415  -37.489533  -37.872120
   9 O     8.0000    0    15.999   54.041669  -34.287095  -32.161496
  10 H     1.0000    0     1.008   52.101145  -35.536469  -29.102043
  11 H     1.0000    0     1.008   50.279594  -37.529280  -32.912760
  12 H     1.0000    0     1.008   55.486616  -39.967873  -33.687358
  13 H     1.0000    0     1.008   52.834231  -35.798865  -36.773754
  14 H     1.0000    0     1.008   57.464276  -35.967264  -33.227751
  15 H     1.0000    0     1.008   51.013286  -41.813728  -32.012531
  16 H     1.0000    0     1.008   53.529086  -41.852946  -36.914636
  17 C     6.0000    0    12.011   59.806231  -39.577598  -23.704459
  18 C     6.0000    0    12.011   58.344423  -41.761233  -24.902242
  19 C     6.0000    0    12.011   57.113494  -40.817861  -27.327812
  20 C     6.0000    0    12.011   55.624715  -38.346338  -26.984596
  21 C     6.0000    0    12.011   56.848777  -36.448092  -25.118238
  22 C     6.0000    0    12.011   54.957444  -34.606678  -23.930112
  23 O     8.0000    0    15.999   60.057052  -43.777351  -25.449350
  24 O     8.0000    0    15.999   55.642800  -42.810183  -28.331775
  25 O     8.0000    0    15.999   55.616881  -37.244419  -29.462078
  26 O     8.0000    0    15.999   58.069091  -37.662257  -22.980129
  27 O     8.0000    0    15.999   53.524432  -33.295131  -25.762614
  28 H     1.0000    0     1.008   60.795209  -40.177580  -21.948442
  29 H     1.0000    0     1.008   56.864379  -42.398463  -23.546699
  30 H     1.0000    0     1.008   58.698531  -40.322182  -28.626351
  31 H     1.0000    0     1.008   53.670104  -38.811266  -26.364229
  32 H     1.0000    0     1.008   58.296613  -35.372748  -26.194839
  33 H     1.0000    0     1.008   53.612128  -35.688624  -22.736140
  34 H     1.0000    0     1.008   56.019499  -33.300396  -22.664093
  35 H     1.0000    0     1.008   59.146139  -44.882873  -26.622975
  36 H     1.0000    0     1.008   54.241872  -42.060423  -29.331595
  37 H     1.0000    0     1.008   54.724382  -32.269994  -26.742683
  38 C     6.0000    0    12.011   68.569953  -36.383146  -27.411801
  39 C     6.0000    0    12.011   68.309893  -39.226293  -26.844716
  40 C     6.0000    0    12.011   65.519317  -39.886349  -26.846639
  41 C     6.0000    0    12.011   64.097024  -38.246109  -24.946862
  42 C     6.0000    0    12.011   64.723235  -35.410189  -25.190242
  43 C     6.0000    0    12.011   63.929480  -33.835126  -22.877813
  44 O     8.0000    0    15.999   69.609562  -40.733577  -28.657402
  45 O     8.0000    0    15.999   65.284321  -42.498348  -26.330977
  46 O     8.0000    0    15.999   61.492205  -38.645098  -25.507391
  47 O     8.0000    0    15.999   67.406725  -35.018041  -25.430391
  48 O     8.0000    0    15.999   61.311439  -33.437645  -22.627175
  49 H     1.0000    0     1.008   70.585732  -35.801177  -27.411419
  50 H     1.0000    0     1.008   69.113335  -39.556601  -24.924385
  51 H     1.0000    0     1.008   64.765896  -39.402876  -28.755730
  52 H     1.0000    0     1.008   64.539084  -38.931569  -23.002059
  53 H     1.0000    0     1.008   63.732103  -34.687796  -26.898739
  54 H     1.0000    0     1.008   64.791827  -34.712708  -21.157169
  55 H     1.0000    0     1.008   64.828714  -31.952083  -23.092046
  56 H     1.0000    0     1.008   68.766889  -42.385039  -28.618853
  57 H     1.0000    0     1.008   60.422702  -35.044781  -22.324949
  58 C     6.0000    0    12.011   69.935173  -33.598756  -36.934704
  59 C     6.0000    0    12.011   71.769089  -35.242431  -35.401905
  60 C     6.0000    0    12.011   70.402823  -36.509873  -33.194533
  61 C     6.0000    0    12.011   68.923231  -34.566614  -31.619542
  62 C     6.0000    0    12.011   67.175258  -33.071262  -33.401627
  63 C     6.0000    0    12.011   65.675348  -30.919031  -32.146273
  64 O     8.0000    0    15.999   72.882637  -37.131519  -36.973193
  65 O     8.0000    0    15.999   72.282156  -37.832543  -31.820834
  66 O     8.0000    0    15.999   67.424830  -35.819392  -29.759689
  67 O     8.0000    0    15.999   68.738462  -31.890366  -35.274531
  68 H     1.0000    0     1.008   70.913919  -32.411022  -38.355548
  69 H     1.0000    0     1.008   73.265991  -33.983899  -34.614332
  70 H     1.0000    0     1.008   68.976546  -37.839299  -33.999745
  71 H     1.0000    0     1.008   70.268499  -33.232771  -30.692621
  72 H     1.0000    0     1.008   65.844834  -34.400901  -34.330855
  73 H     1.0000    0     1.008   73.673104  -38.296872  -35.761731
  74 H     1.0000    0     1.008   71.420565  -39.148244  -30.796614
  75 C     6.0000    0    12.011   64.279444  -37.345003  -44.282790
  76 C     6.0000    0    12.011   66.580875  -39.005379  -43.710603
  77 C     6.0000    0    12.011   67.633202  -38.296148  -41.124797
  78 C     6.0000    0    12.011   67.996598  -35.438940  -40.761868
  79 C     6.0000    0    12.011   65.768663  -33.876707  -41.787744
  80 C     6.0000    0    12.011   66.258291  -31.034560  -42.050181
  81 O     8.0000    0    15.999   65.800201  -41.589600  -43.738940
  82 O     8.0000    0    15.999   69.891915  -39.666117  -40.740810
  83 O     8.0000    0    15.999   68.152990  -35.199528  -38.076386
  84 O     8.0000    0    15.999   65.022409  -34.762117  -44.287054
  85 O     8.0000    0    15.999   66.927127  -29.919632  -39.737428
  86 H     1.0000    0     1.008   63.494031  -37.742673  -46.192494
  87 H     1.0000    0     1.008   68.040736  -38.648831  -45.187267
  88 H     1.0000    0     1.008   66.154393  -38.843063  -39.721604
  89 H     1.0000    0     1.008   69.802706  -34.850325  -41.670574
  90 H     1.0000    0     1.008   64.177358  -34.170843  -40.457560
  91 H     1.0000    0     1.008   67.842391  -30.731870  -43.400410
  92 H     1.0000    0     1.008   64.538031  -30.163910  -42.907287
  93 H     1.0000    0     1.008   67.189401  -42.518767  -42.943366
  94 H     1.0000    0     1.008   70.766113  -38.921559  -39.256913
  95 H     1.0000    0     1.008   65.648886  -30.431490  -38.459945
  96 C     6.0000    0    12.011   55.193639  -38.265852  -40.213778
  97 C     6.0000    0    12.011   56.395046  -40.797930  -40.984491
  98 C     6.0000    0    12.011   59.233621  -40.417902  -41.163381
  99 C     6.0000    0    12.011   59.889098  -38.194131  -42.896962
 100 C     6.0000    0    12.011   58.320380  -35.808262  -42.314185
 101 C     6.0000    0    12.011   58.465105  -33.677766  -44.282468
 102 O     8.0000    0    15.999   55.789115  -42.706163  -39.178179
 103 O     8.0000    0    15.999   60.367927  -42.691891  -41.990498
 104 O     8.0000    0    15.999   62.502864  -37.808764  -42.384850
 105 O     8.0000    0    15.999   55.685684  -36.455721  -42.104716
 106 O     8.0000    0    15.999   60.576453  -32.092125  -43.988269
 107 H     1.0000    0     1.008   53.107809  -38.434344  -40.077862
 108 H     1.0000    0     1.008   55.628117  -41.315725  -42.877346
 109 H     1.0000    0     1.008   59.903371  -39.881518  -39.236314
 110 H     1.0000    0     1.008   59.606820  -38.779610  -44.903323
 111 H     1.0000    0     1.008   59.011653  -35.047527  -40.478088
 112 H     1.0000    0     1.008   58.322992  -34.504320  -46.223529
 113 H     1.0000    0     1.008   56.743912  -32.511068  -44.001509
 114 H     1.0000    0     1.008   57.066775  -44.030832  -39.370120
 115 H     1.0000    0     1.008   62.185722  -42.344529  -42.260576
 116 H     1.0000    0     1.008   62.120176  -33.016971  -44.495438
 117 C     6.0000    0    12.011   58.805058  -30.654076  -31.253376
 118 C     6.0000    0    12.011   61.308619  -30.500396  -30.314006
 119 N     7.0000    0    14.007   58.969759  -31.437976  -33.774451
 120 N     7.0000    0    14.007   62.935042  -31.169111  -32.276921
 121 C     6.0000    0    12.011   61.539399  -31.540643  -34.499540
 122 H     1.0000    0     1.008   66.289679  -29.134258  -33.067994
 123 H     1.0000    0     1.008   66.161308  -30.798777  -30.116681
 124 H     1.0000    0     1.008   55.340020  -31.081826  -35.435293
 125 H     1.0000    0     1.008   57.602323  -32.902729  -37.162517
 126 H     1.0000    0     1.008   63.461056  -42.935120  -26.298574
 127 C     6.0000    0    12.011   61.792504  -29.691096  -27.843850
 128 C     6.0000    0    12.011   56.744529  -29.900808  -29.779946
 129 N     7.0000    0    14.007   62.552105  -31.805710  -36.716762
 130 H     1.0000    0     1.008   61.212208  -31.908861  -38.122774
 131 C     6.0000    0    12.011   59.718947  -28.986390  -26.336194
 132 C     6.0000    0    12.011   57.242594  -29.041649  -27.301560
 133 H     1.0000    0     1.008   60.051925  -28.367201  -24.383355
 134 H     1.0000    0     1.008   63.727278  -29.570017  -27.100570
 135 H     1.0000    0     1.008   55.666804  -28.383737  -26.114426
 136 H     1.0000    0     1.008   54.817327  -29.975650  -30.541670

--------------------------------
INTERNAL COORDINATES (ANGSTROEM)
--------------------------------
 C      0   0   0     0.000000000000     0.00000000     0.00000000
 C      1   0   0     1.538471594769     0.00000000     0.00000000
 C      2   1   0     1.524974561833   111.05843921     0.00000000
 C      3   2   1     1.537009404994   110.87191386   307.31519498
 C      4   3   2     1.539964298943   107.41341912    55.64002729
 C      5   4   3     1.536490571916   115.97303202   178.06657983
 O      2   1   3     1.429745032785   111.22589550   121.82001196
 O      3   2   1     1.417132616991   106.66423835   182.46919149
 O      4   3   2     1.420629653786   109.13156958   174.49652930
 O      1   2   3     1.415592204932   108.25509455    53.66501433
 H      1   2   3     1.108924745288   112.45659700   170.75433115
 H      2   1   3     1.115549858015   107.22441429   241.62989977
 H      3   2   1     1.115821166093   107.84241538    63.57887190
 H      4   3   2     1.115554711806   110.36578796   296.31979844
 H      5   4   3     1.111951626761   107.94008562    57.51213933
 H      7   2   1     0.984262438656   103.26765979   190.32958153
 H      8   3   2     0.993465143004   107.71442124   200.83550517
 C      1   2   3     5.265596473817   116.40163693   275.02895025
 C     18   1   2     1.528198132702    68.51335505   351.21112090
 C     19  18   1     1.523491013408   108.54791552    16.03507387
 C     20  19  18     1.537593263734   113.47024067   310.04388966
 C     21  20  19     1.550494472990   114.34672016    37.02618732
 C     22  21  20     1.531836903836   113.61617655   204.56977617
 O     19  18   1     1.429479479017   109.11236785   136.12703221
 O     20  19  18     1.414025345215   107.91182838   183.55190993
 O      1   2   3     1.408850980382   111.51990571   295.67205060
 O     18   1   2     1.421000142447    62.28490626   224.35404219
 O     23  22  21     1.413184866481   112.41831089   305.83383768
 H     18   1   2     1.112739205883   166.67110901   257.93182042
 H     19  18   1     1.114303075465   108.51807725   256.58209961
 H     20  19  18     1.115578170751   105.93437617    64.65608048
 H     21  20  19     1.112722175802   108.84803563   273.45028944
 H     22  21  20     1.111481533131   107.04749383    83.46639231
 H     23  22  21     1.110774620833   108.92507696    64.78061778
 H     23  22  21     1.114685795271   108.16426936   181.35065200
 H     24  19  18     0.979955210814   105.19195078   195.78968025
 H     25  20  19     0.993441713381   108.24254826   152.60290812
 H     28  23  22     0.983091147020   106.64317346   296.61253030
 C     18   1   2     5.311624662561   101.87261966   111.11995430
 C     39  18   1     1.540323903099    62.56009537   235.62410448
 C     40  39  18     1.517455862173   108.15832219    22.50994945
 C     41  40  39     1.526606036563   110.39351689   303.50223669
 C     42  41  40     1.542241875277   113.09937222    48.63823587
 C     43  42  41     1.539004777027   113.69993498   196.30063493
 O     40  39  18     1.424546048590   111.87487496   143.69611972
 O     41  40  39     1.414365875235   108.08202616   179.87838750
 O     18   1   2     1.396328549413    80.00449871   105.08115267
 O     39  18   1     1.414259766657    60.57480187   101.10576819
 O     44  43  42     1.407546833667   115.11831542   287.15684900
 H     39  18   1     1.110270041796   157.97891401   157.84937833
 H     40  39  18     1.115333625233   107.24881821   264.37538533
 H     41  40  39     1.115800910586   107.19055021    59.51329491
 H     42  41  40     1.115990807934   108.61096587   285.74172656
 H     43  42  41     1.112928310732   107.50648050    75.11465817
 H     44  43  42     1.119357881495   108.10870569    54.21003817
 H     44  43  42     1.110058324794   106.73557170   168.21155499
 H     45  40  39     0.981322167066   105.38166309   204.27034400
 H     49  44  43     0.984906489370   110.87066870    64.85847974
 C     50  39  18     5.183961007813    89.90725436   183.79387344
 C     59  50  39     1.535014206762    46.91626389   232.04200803
 C     60  59  50     1.528725203810   110.69280251    33.66350443
 C     61  60  59     1.537898956205   111.19314342   308.42987263
 C     62  61  60     1.539834542655   108.51452657    53.64312132
 C     63  62  61     1.538963516424   115.19871645   183.76773624
 O     60  59  50     1.427561623456   110.48617168   155.07407090
 O     61  60  59     1.416811907191   106.06977092   183.75592213
 O     39  18   1     1.414171724430    91.00345959   347.51635410
 O     59  50  39     1.410720238185    64.43651036    73.63873991
 H     59  50  39     1.108427666050   139.10224130   158.06502075
 H     60  59  50     1.115659585099   107.94020420   275.42508808
 H     61  60  59     1.116301410839   107.73393128    64.77842117
 H     62  61  60     1.116058286243   109.65317602   294.55635120
 H     63  62  61     1.110192065387   109.05666438    60.25785918
 H     65  60  59     0.982977471898   103.59756331   193.08526231
 H     66  61  60     0.993167896844   107.70284643   200.49307725
 C     59  50  39     5.292195682969   131.88317253   330.23670593
 C     76  59  50     1.531949878921    67.66884734   280.05291863
 C     77  76  59     1.524250412769   109.06552988    17.38399929
 C     78  77  76     1.536201678848   113.59729494   311.24631667
 C     79  78  77     1.538867781411   112.87555385    42.75713164
 C     80  79  78     1.532459852646   115.44667096   193.56590343
 O     77  76  59     1.428626957909   108.48434574   137.83740233
 O     78  77  76     1.412620232802   108.17333834   185.70950957
 O     59  50  39     1.404273906876   109.09988204   329.25104233
 O     76  59  50     1.422228752078    58.99149669   148.34538950
 O     81  80  79     1.403989548880   112.08917836   301.44335572
 H     76  59  50     1.112781397669   161.68191873   188.62377767
 H     77  76  59     1.114901943177   108.37631153   258.20046970
 H     78  77  76     1.116920352211   106.08370271    66.13174371
 H     79  78  77     1.114322364735   109.17973931   279.08957887
 H     80  79  78     1.108516404736   106.41234789    72.63776582
 H     81  80  79     1.113048529323   109.07133823    61.00982835
 H     81  80  79     1.116546034900   107.69436305   176.90225247
 H     82  77  76     0.979502257303   105.00900680   194.36959120
 H     83  78  77     0.992900562137   107.71816164   167.31939182
 H     86  81  80     0.993932407855   107.86653873   309.37898304
 C      9   4   3     1.417513389367   117.29295841    87.34745456
 C     97   9   4     1.538149801342   108.85625003   229.52875533
 C     98  97   9     1.518464612203   108.06130340   301.45900977
 C     99  98  97     1.531884623018   111.28829569   306.69680037
 C    100  99  98     1.542156815361   112.78436863    47.79208181
 C    101 100  99     1.536810721853   115.99137926   191.87554969
 O     98  97   9     1.426941538039   110.24087007    62.88031919
 O     99  98  97     1.414180519883   109.05529302   182.83404245
 O     76  59  50     1.397417219545    85.30640887    30.57185484
 O     97   9   4     1.409473067603   110.58960269   109.66792271
 O    102 101 100     1.405919721777   113.72730867   276.51450989
 H     97   9   4     1.109702368921   110.74453226   351.82069148
 H     98  97   9     1.114943973641   107.56839014   183.12325016
 H     99  98  97     1.116283138113   106.90593670    62.31278507
 H    100  99  98     1.116043678006   109.03480846   285.02001516
 H    101 100  99     1.113515830762   107.07551986    71.19116673
 H    102 101 100     1.118944371463   109.39286587    43.70439131
 H    102 101 100     1.110343195066   106.03822961   158.26950998
 H    103  98  97     0.979192852197   106.37735300   201.25126758
 H    104  99  98     0.989714556816   107.40917444   174.25892040
 H    107 102 101     0.989383495847   109.32295433    71.71554638
 C      6   5   4     2.533571930594    97.90210400   181.46413265
 C    118   6   5     1.417351014919   133.47869333   102.08411353
 N    118   6   5     1.399815938474    28.09999454   125.37884971
 N    119 118   6     1.394606768572   107.52191513    11.72338697
 C    121 119 118     1.402657995293   109.58293059     4.87122134
 H     64  63  62     1.111573258157   106.77104315   118.00777668
 H     64  63  62     1.106203157284   109.98492452     1.05964194
 H      6   5   4     1.110969011556   109.70996359    81.38761211
 H      6   5   4     1.107075044117   108.48866128   324.29261681
 H     46  41  40     0.992276345211   108.44885525   178.97346378
 C    119 118   6     1.399148750418   121.08347645   189.39698529
 C    118   6   5     1.398488656925   105.14815650   287.98518260
 N    122 121 119     1.297499652524   123.77554849   169.29606732
 H    130 122 121     1.029223799246   112.01833703   184.78273015
 C    128 119 118     1.406982083089   117.91469176   358.76996893
 C    132 128 119     1.406786577365   121.00035737   358.63706517
 H    132 128 119     1.098326355945   119.17474263   179.25447077
 H    128 119 118     1.098660841523   121.52459268   179.89022874
 H    133 132 128     1.100542293320   119.46805084   183.26527193
 H    129 118   6     1.097316957886   120.63320991   353.25415587

---------------------------
INTERNAL COORDINATES (A.U.)
---------------------------
 C      0   0   0     0.000000000000     0.00000000     0.00000000
 C      1   0   0     2.907289978931     0.00000000     0.00000000
 C      2   1   0     2.881784283061   111.05843921     0.00000000
 C      3   2   1     2.904526840700   110.87191386   307.31519498
 C      4   3   2     2.910110781018   107.41341912    55.64002729
 C      5   4   3     2.903546388273   115.97303202   178.06657983
 O      2   1   3     2.701826553298   111.22589550   121.82001196
 O      3   2   1     2.677992541560   106.66423835   182.46919149
 O      4   3   2     2.684600983383   109.13156958   174.49652930
 O      1   2   3     2.675081584635   108.25509455    53.66501433
 H      1   2   3     2.095564071722   112.45659700   170.75433115
 H      2   1   3     2.108083720383   107.22441429   241.62989977
 H      3   2   1     2.108596418349   107.84241538    63.57887190
 H      4   3   2     2.108092892718   110.36578796   296.31979844
 H      5   4   3     2.101284048746   107.94008562    57.51213933
 H      7   2   1     1.859986452965   103.26765979   190.32958153
 H      8   3   2     1.877377043874   107.71442124   200.83550517
 C      1   2   3     9.950535267256   116.40163693   275.02895025
 C     18   1   2     2.887875949176    68.51335505   351.21112090
 C     19  18   1     2.878980782831   108.54791552    16.03507387
 C     20  19  18     2.905630173819   113.47024067   310.04388966
 C     21  20  19     2.930009926110   114.34672016    37.02618732
 C     22  21  20     2.894752230084   113.61617655   204.56977617
 O     19  18   1     2.701324729403   109.11236785   136.12703221
 O     20  19  18     2.672120648880   107.91182838   183.55190993
 O      1   2   3     2.662342516428   111.51990571   295.67205060
 O     18   1   2     2.685301105488    62.28490626   224.35404219
 O     23  22  21     2.670532374252   112.41831089   305.83383768
 H     18   1   2     2.102772357596   166.67110901   257.93182042
 H     19  18   1     2.105727642816   108.51807725   256.58209961
 H     20  19  18     2.108137223701   105.93437617    64.65608048
 H     21  20  19     2.102740175406   108.84803563   273.45028944
 H     22  21  20     2.100395700528   107.04749383    83.46639231
 H     23  22  21     2.099059829884   108.92507696    64.78061778
 H     23  22  21     2.106450878435   108.16426936   181.35065200
 H     24  19  18     1.851846971948   105.19195078   195.78968025
 H     25  20  19     1.877332768304   108.24254826   152.60290812
 H     28  23  22     1.857773032550   106.64317346   296.61253030
 C     18   1   2    10.037515938423   101.87261966   111.11995430
 C     39  18   1     2.910790334391    62.56009537   235.62410448
 C     40  39  18     2.867575999820   108.15832219    22.50994945
 C     41  40  39     2.884867323495   110.39351689   303.50223669
 C     42  41  40     2.914414776539   113.09937222    48.63823587
 C     43  42  41     2.908297547377   113.69993498   196.30063493
 O     40  39  18     2.692001896994   111.87487496   143.69611972
 O     41  40  39     2.672764157359   108.08202616   179.87838750
 O     18   1   2     2.638678551366    80.00449871   105.08115267
 O     39  18   1     2.672563641205    60.57480187   101.10576819
 O     44  43  42     2.659878036299   115.11831542   287.15684900
 H     39  18   1     2.098106313692   157.97891401   157.84937833
 H     40  39  18     2.107675099644   107.24881821   264.37538533
 H     41  40  39     2.108558140988   107.19055021    59.51329491
 H     42  41  40     2.108916994969   108.61096587   285.74172656
 H     43  42  41     2.103129713972   107.50648050    75.11465817
 H     44  43  42     2.115279841871   108.10870569    54.21003817
 H     44  43  42     2.097706226540   106.73557170   168.21155499
 H     45  40  39     1.854430144900   105.38166309   204.27034400
 H     49  44  43     1.861203532432   110.87066870    64.85847974
 C     50  39  18     9.796266593693    89.90725436   183.79387344
 C     59  50  39     2.900756462458    46.91626389   232.04200803
 C     60  59  50     2.888871969223   110.69280251    33.66350443
 C     61  60  59     2.906207848870   111.19314342   308.42987263
 C     62  61  60     2.909865577169   108.51452657    53.64312132
 C     63  62  61     2.908219576138   115.19871645   183.76773624
 O     60  59  50     2.697700507628   110.48617168   155.07407090
 O     61  60  59     2.677386487869   106.06977092   183.75592213
 O     39  18   1     2.672397265507    91.00345959   347.51635410
 O     59  50  39     2.665874901749    64.43651036    73.63873991
 H     59  50  39     2.094624728095   139.10224130   158.06502075
 H     60  59  50     2.108291074521   107.94020420   275.42508808
 H     61  60  59     2.109503949396   107.73393128    64.77842117
 H     62  61  60     2.109044510493   109.65317602   294.55635120
 H     63  62  61     2.097958959634   109.05666438    60.25785918
 H     65  60  59     1.857558217702   103.59756331   193.08526231
 H     66  61  60     1.876815330037   107.70284643   200.49307725
 C     59  50  39    10.000800487933   131.88317253   330.23670593
 C     76  59  50     2.894965722054    67.66884734   280.05291863
 C     77  76  59     2.880415839649   109.06552988    17.38399929
 C     78  77  76     2.903000459494   113.59729494   311.24631667
 C     79  78  77     2.908038663182   112.87555385    42.75713164
 C     80  79  78     2.895929432730   115.44667096   193.56590343
 O     77  76  59     2.699713697986   108.48434574   137.83740233
 O     78  77  76     2.669465371232   108.17333834   185.70950957
 O     59  50  39     2.653693101007   109.09988204   329.25104233
 O     76  59  50     2.687622841215    58.99149669   148.34538950
 O     81  80  79     2.653155742271   112.08917836   301.44335572
 H     76  59  50     2.102852088516   161.68191873   188.62377767
 H     77  76  59     2.106859338780   108.37631153   258.20046970
 H     78  77  76     2.110673579081   106.08370271    66.13174371
 H     79  78  77     2.105764094253   109.17973931   279.08957887
 H     80  79  78     2.094792419911   106.41234789    72.63776582
 H     81  80  79     2.103356894184   109.07133823    61.00982835
 H     81  80  79     2.109966221877   107.69436305   176.90225247
 H     82  77  76     1.850991013860   105.00900680   194.36959120
 H     83  78  77     1.876310140655   107.71816164   167.31939182
 H     86  81  80     1.878260046475   107.86653873   309.37898304
 C      9   4   3     2.678712097070   117.29295841    87.34745456
 C     97   9   4     2.906681877481   108.85625003   229.52875533
 C     98  97   9     2.869482261114   108.06130340   301.45900977
 C     99  98  97     2.894842406268   111.28829569   306.69680037
 C    100  99  98     2.914254036593   112.78436863    47.79208181
 C    101 100  99     2.904151383975   115.99137926   191.87554969
 O     98  97   9     2.696528716010   110.24087007    62.88031919
 O     99  98  97     2.672413886506   109.05529302   182.83404245
 O     76  59  50     2.640735839766    85.30640887    30.57185484
 O     97   9   4     2.663518090908   110.58960269   109.66792271
 O    102 101 100     2.656803240438   113.72730867   276.51450989
 H     97   9   4     2.097033567425   110.74453226   351.82069148
 H     98  97   9     2.106938764847   107.56839014   183.12325016
 H     99  98  97     2.109469418949   106.90593670    62.31278507
 H    100  99  98     2.109016904925   109.03480846   285.02001516
 H    101 100  99     2.104239965926   107.07551986    71.19116673
 H    102 101 100     2.114498421158   109.39286587    43.70439131
 H    102 101 100     2.098244553338   106.03822961   158.26950998
 H    103  98  97     1.850406322946   106.37735300   201.25126758
 H    104  99  98     1.870289463137   107.40917444   174.25892040
 H    107 102 101     1.869663848572   109.32295433    71.71554638
 C      6   5   4     4.787757089413    97.90210400   181.46413265
 C    118   6   5     2.678405253832   133.47869333   102.08411353
 N    118   6   5     2.645268761614    28.09999454   125.37884971
 N    119 118   6     2.635424857115   107.52191513    11.72338697
 C    121 119 118     2.650639470660   109.58293059     4.87122134
 H     64  63  62     2.100569035707   106.77104315   118.00777668
 H     64  63  62     2.090421015745   109.98492452     1.05964194
 H      6   5   4     2.099427175114   109.70996359    81.38761211
 H      6   5   4     2.092068643081   108.48866128   324.29261681
 H     46  41  40     1.875130541617   108.44885525   178.97346378
 C    119 118   6     2.644007958908   121.08347645   189.39698529
 C    118   6   5     2.642760562983   105.14815650   287.98518260
 N    122 121 119     2.451919002129   123.77554849   169.29606732
 H    130 122 121     1.944951111089   112.01833703   184.78273015
 C    128 119 118     2.658810812373   117.91469176   358.76996893
 C    132 128 119     2.658441360096   121.00035737   358.63706517
 H    132 128 119     2.075536018405   119.17474263   179.25447077
 H    128 119 118     2.076168104543   121.52459268   179.89022874
 H    133 132 128     2.079723533173   119.46805084   183.26527193
 H    129 118   6     2.073628532513   120.63320991   353.25415587

---------------------
BASIS SET INFORMATION
---------------------
There are 4 groups of distinct atoms

 Group   1 Type C   : 7s4p1d contracted to 3s2p1d pattern {511/31/1}
 Group   2 Type O   : 7s4p1d contracted to 3s2p1d pattern {511/31/1}
 Group   3 Type H   : 4s1p contracted to 2s1p pattern {31/1}
 Group   4 Type N   : 7s4p1d contracted to 3s2p1d pattern {511/31/1}

Atom   0C    basis set group =>   1
Atom   1C    basis set group =>   1
Atom   2C    basis set group =>   1
Atom   3C    basis set group =>   1
Atom   4C    basis set group =>   1
Atom   5C    basis set group =>   1
Atom   6O    basis set group =>   2
Atom   7O    basis set group =>   2
Atom   8O    basis set group =>   2
Atom   9O    basis set group =>   2
Atom  10H    basis set group =>   3
Atom  11H    basis set group =>   3
Atom  12H    basis set group =>   3
Atom  13H    basis set group =>   3
Atom  14H    basis set group =>   3
Atom  15H    basis set group =>   3
Atom  16H    basis set group =>   3
Atom  17C    basis set group =>   1
Atom  18C    basis set group =>   1
Atom  19C    basis set group =>   1
Atom  20C    basis set group =>   1
Atom  21C    basis set group =>   1
Atom  22C    basis set group =>   1
Atom  23O    basis set group =>   2
Atom  24O    basis set group =>   2
Atom  25O    basis set group =>   2
Atom  26O    basis set group =>   2
Atom  27O    basis set group =>   2
Atom  28H    basis set group =>   3
Atom  29H    basis set group =>   3
Atom  30H    basis set group =>   3
Atom  31H    basis set group =>   3
Atom  32H    basis set group =>   3
Atom  33H    basis set group =>   3
Atom  34H    basis set group =>   3
Atom  35H    basis set group =>   3
Atom  36H    basis set group =>   3
Atom  37H    basis set group =>   3
Atom  38C    basis set group =>   1
Atom  39C    basis set group =>   1
Atom  40C    basis set group =>   1
Atom  41C    basis set group =>   1
Atom  42C    basis set group =>   1
Atom  43C    basis set group =>   1
Atom  44O    basis set group =>   2
Atom  45O    basis set group =>   2
Atom  46O    basis set group =>   2
Atom  47O    basis set group =>   2
Atom  48O    basis set group =>   2
Atom  49H    basis set group =>   3
Atom  50H    basis set group =>   3
Atom  51H    basis set group =>   3
Atom  52H    basis set group =>   3
Atom  53H    basis set group =>   3
Atom  54H    basis set group =>   3
Atom  55H    basis set group =>   3
Atom  56H    basis set group =>   3
Atom  57H    basis set group =>   3
Atom  58C    basis set group =>   1
Atom  59C    basis set group =>   1
Atom  60C    basis set group =>   1
Atom  61C    basis set group =>   1
Atom  62C    basis set group =>   1
Atom  63C    basis set group =>   1
Atom  64O    basis set group =>   2
Atom  65O    basis set group =>   2
Atom  66O    basis set group =>   2
Atom  67O    basis set group =>   2
Atom  68H    basis set group =>   3
Atom  69H    basis set group =>   3
Atom  70H    basis set group =>   3
Atom  71H    basis set group =>   3
Atom  72H    basis set group =>   3
Atom  73H    basis set group =>   3
Atom  74H    basis set group =>   3
Atom  75C    basis set group =>   1
Atom  76C    basis set group =>   1
Atom  77C    basis set group =>   1
Atom  78C    basis set group =>   1
Atom  79C    basis set group =>   1
Atom  80C    basis set group =>   1
Atom  81O    basis set group =>   2
Atom  82O    basis set group =>   2
Atom  83O    basis set group =>   2
Atom  84O    basis set group =>   2
Atom  85O    basis set group =>   2
Atom  86H    basis set group =>   3
Atom  87H    basis set group =>   3
Atom  88H    basis set group =>   3
Atom  89H    basis set group =>   3
Atom  90H    basis set group =>   3
Atom  91H    basis set group =>   3
Atom  92H    basis set group =>   3
Atom  93H    basis set group =>   3
Atom  94H    basis set group =>   3
Atom  95H    basis set group =>   3
Atom  96C    basis set group =>   1
Atom  97C    basis set group =>   1
Atom  98C    basis set group =>   1
Atom  99C    basis set group =>   1
Atom 100C    basis set group =>   1
Atom 101C    basis set group =>   1
Atom 102O    basis set group =>   2
Atom 103O    basis set group =>   2
Atom 104O    basis set group =>   2
Atom 105O    basis set group =>   2
Atom 106O    basis set group =>   2
Atom 107H    basis set group =>   3
Atom 108H    basis set group =>   3
Atom 109H    basis set group =>   3
Atom 110H    basis set group =>   3
Atom 111H    basis set group =>   3
Atom 112H    basis set group =>   3
Atom 113H    basis set group =>   3
Atom 114H    basis set group =>   3
Atom 115H    basis set group =>   3
Atom 116H    basis set group =>   3
Atom 117C    basis set group =>   1
Atom 118C    basis set group =>   1
Atom 119N    basis set group =>   4
Atom 120N    basis set group =>   4
Atom 121C    basis set group =>   1
Atom 122H    basis set group =>   3
Atom 123H    basis set group =>   3
Atom 124H    basis set group =>   3
Atom 125H    basis set group =>   3
Atom 126H    basis set group =>   3
Atom 127C    basis set group =>   1
Atom 128C    basis set group =>   1
Atom 129N    basis set group =>   4
Atom 130H    basis set group =>   3
Atom 131C    basis set group =>   1
Atom 132C    basis set group =>   1
Atom 133H    basis set group =>   3
Atom 134H    basis set group =>   3
Atom 135H    basis set group =>   3
Atom 136H    basis set group =>   3
---------------------------------
AUXILIARY/J BASIS SET INFORMATION
---------------------------------
There are 4 groups of distinct atoms

 Group   1 Type C   : 12s5p4d2f1g contracted to 6s4p3d1f1g pattern {711111/2111/211/2/1}
 Group   2 Type O   : 12s5p4d2f1g contracted to 6s4p3d1f1g pattern {711111/2111/211/2/1}
 Group   3 Type H   : 5s2p1d contracted to 3s1p1d pattern {311/2/1}
 Group   4 Type N   : 12s5p4d2f1g contracted to 6s4p3d1f1g pattern {711111/2111/211/2/1}

Atom   0C    basis set group =>   1
Atom   1C    basis set group =>   1
Atom   2C    basis set group =>   1
Atom   3C    basis set group =>   1
Atom   4C    basis set group =>   1
Atom   5C    basis set group =>   1
Atom   6O    basis set group =>   2
Atom   7O    basis set group =>   2
Atom   8O    basis set group =>   2
Atom   9O    basis set group =>   2
Atom  10H    basis set group =>   3
Atom  11H    basis set group =>   3
Atom  12H    basis set group =>   3
Atom  13H    basis set group =>   3
Atom  14H    basis set group =>   3
Atom  15H    basis set group =>   3
Atom  16H    basis set group =>   3
Atom  17C    basis set group =>   1
Atom  18C    basis set group =>   1
Atom  19C    basis set group =>   1
Atom  20C    basis set group =>   1
Atom  21C    basis set group =>   1
Atom  22C    basis set group =>   1
Atom  23O    basis set group =>   2
Atom  24O    basis set group =>   2
Atom  25O    basis set group =>   2
Atom  26O    basis set group =>   2
Atom  27O    basis set group =>   2
Atom  28H    basis set group =>   3
Atom  29H    basis set group =>   3
Atom  30H    basis set group =>   3
Atom  31H    basis set group =>   3
Atom  32H    basis set group =>   3
Atom  33H    basis set group =>   3
Atom  34H    basis set group =>   3
Atom  35H    basis set group =>   3
Atom  36H    basis set group =>   3
Atom  37H    basis set group =>   3
Atom  38C    basis set group =>   1
Atom  39C    basis set group =>   1
Atom  40C    basis set group =>   1
Atom  41C    basis set group =>   1
Atom  42C    basis set group =>   1
Atom  43C    basis set group =>   1
Atom  44O    basis set group =>   2
Atom  45O    basis set group =>   2
Atom  46O    basis set group =>   2
Atom  47O    basis set group =>   2
Atom  48O    basis set group =>   2
Atom  49H    basis set group =>   3
Atom  50H    basis set group =>   3
Atom  51H    basis set group =>   3
Atom  52H    basis set group =>   3
Atom  53H    basis set group =>   3
Atom  54H    basis set group =>   3
Atom  55H    basis set group =>   3
Atom  56H    basis set group =>   3
Atom  57H    basis set group =>   3
Atom  58C    basis set group =>   1
Atom  59C    basis set group =>   1
Atom  60C    basis set group =>   1
Atom  61C    basis set group =>   1
Atom  62C    basis set group =>   1
Atom  63C    basis set group =>   1
Atom  64O    basis set group =>   2
Atom  65O    basis set group =>   2
Atom  66O    basis set group =>   2
Atom  67O    basis set group =>   2
Atom  68H    basis set group =>   3
Atom  69H    basis set group =>   3
Atom  70H    basis set group =>   3
Atom  71H    basis set group =>   3
Atom  72H    basis set group =>   3
Atom  73H    basis set group =>   3
Atom  74H    basis set group =>   3
Atom  75C    basis set group =>   1
Atom  76C    basis set group =>   1
Atom  77C    basis set group =>   1
Atom  78C    basis set group =>   1
Atom  79C    basis set group =>   1
Atom  80C    basis set group =>   1
Atom  81O    basis set group =>   2
Atom  82O    basis set group =>   2
Atom  83O    basis set group =>   2
Atom  84O    basis set group =>   2
Atom  85O    basis set group =>   2
Atom  86H    basis set group =>   3
Atom  87H    basis set group =>   3
Atom  88H    basis set group =>   3
Atom  89H    basis set group =>   3
Atom  90H    basis set group =>   3
Atom  91H    basis set group =>   3
Atom  92H    basis set group =>   3
Atom  93H    basis set group =>   3
Atom  94H    basis set group =>   3
Atom  95H    basis set group =>   3
Atom  96C    basis set group =>   1
Atom  97C    basis set group =>   1
Atom  98C    basis set group =>   1
Atom  99C    basis set group =>   1
Atom 100C    basis set group =>   1
Atom 101C    basis set group =>   1
Atom 102O    basis set group =>   2
Atom 103O    basis set group =>   2
Atom 104O    basis set group =>   2
Atom 105O    basis set group =>   2
Atom 106O    basis set group =>   2
Atom 107H    basis set group =>   3
Atom 108H    basis set group =>   3
Atom 109H    basis set group =>   3
Atom 110H    basis set group =>   3
Atom 111H    basis set group =>   3
Atom 112H    basis set group =>   3
Atom 113H    basis set group =>   3
Atom 114H    basis set group =>   3
Atom 115H    basis set group =>   3
Atom 116H    basis set group =>   3
Atom 117C    basis set group =>   1
Atom 118C    basis set group =>   1
Atom 119N    basis set group =>   4
Atom 120N    basis set group =>   4
Atom 121C    basis set group =>   1
Atom 122H    basis set group =>   3
Atom 123H    basis set group =>   3
Atom 124H    basis set group =>   3
Atom 125H    basis set group =>   3
Atom 126H    basis set group =>   3
Atom 127C    basis set group =>   1
Atom 128C    basis set group =>   1
Atom 129N    basis set group =>   4
Atom 130H    basis set group =>   3
Atom 131C    basis set group =>   1
Atom 132C    basis set group =>   1
Atom 133H    basis set group =>   3
Atom 134H    basis set group =>   3
Atom 135H    basis set group =>   3
Atom 136H    basis set group =>   3


           ************************************************************
           *        Program running with 36 parallel MPI-processes    *
           *              working on a common directory               *
           ************************************************************
------------------------------------------------------------------------------
                           ORCA GTO INTEGRAL CALCULATION
                           -- RI-GTO INTEGRALS CHOSEN --
------------------------------------------------------------------------------
------------------------------------------------------------------------------
                   ___                                                        
                  /   \      - P O W E R E D   B Y -                         
                 /     \                                                     
                 |  |  |   _    _      __       _____    __    __             
                 |  |  |  | |  | |    /  \     |  _  \  |  |  /  |          
                  \  \/   | |  | |   /    \    | | | |  |  | /  /          
                 / \  \   | |__| |  /  /\  \   | |_| |  |  |/  /          
                |  |  |   |  __  | /  /__\  \  |    /   |      \           
                |  |  |   | |  | | |   __   |  |    \   |  |\   \          
                \     /   | |  | | |  |  |  |  | |\  \  |  | \   \       
                 \___/    |_|  |_| |__|  |__|  |_| \__\ |__|  \__/        
                                                                              
                      - O R C A' S   B I G   F R I E N D -                    
                                      &                                       
                       - I N T E G R A L  F E E D E R -                       
                                                                              
 v1 FN, 2020, v2 2021                                                         
------------------------------------------------------------------------------


Reading SHARK input file aBiCyDNH_orca.SHARKINP.tmp ... ok
----------------------
SHARK INTEGRAL PACKAGE
----------------------

Number of atoms                             ...    137
Number of basis functions                   ...   1351
Number of shells                            ...    633
Maximum angular momentum                    ...      2
Integral batch strategy                     ... SHARK/LIBINT Hybrid
RI-J (if used) integral strategy            ... SPLIT-RIJ (Revised 2003 algorithm where possible)
Printlevel                                  ...      1
Contraction scheme used                     ... SEGMENTED contraction
Coulomb Range Separation                    ... NOT USED
Exchange Range Separation                   ... NOT USED
Finite Nucleus Model                        ... NOT USED
Auxiliary Coulomb fitting basis             ... AVAILABLE
   # of basis functions in Aux-J            ...   4319
   # of shells in Aux-J                     ...   1425
   Maximum angular momentum in Aux-J        ...      4
Auxiliary J/K fitting basis                 ... NOT available
Auxiliary Correlation fitting basis         ... NOT available
Auxiliary 'external' fitting basis          ... NOT available
Integral threshold                          ...     1.000000e-10
Primitive cut-off                           ...     1.000000e-11
Primitive pair pre-selection threshold      ...     1.000000e-11

Calculating pre-screening integrals         ... done (  0.5 sec) Dimension = 633
Organizing shell pair data                  ... done (  0.3 sec)
Shell pair information
Total number of shell pairs                 ...    200661
Shell pairs after pre-screening             ...     88968
Total number of primitive shell pairs       ...    725357
Primitive shell pairs kept                  ...    179330
          la=0 lb=0:  29242 shell pairs
          la=1 lb=0:  34076 shell pairs
          la=1 lb=1:  10022 shell pairs
          la=2 lb=0:   9590 shell pairs
          la=2 lb=1:   5392 shell pairs
          la=2 lb=2:    646 shell pairs

Calculating one electron integrals          ... done (  0.1 sec)
Calculating RI/J V-Matrix + Cholesky decomp.... done (  2.9 sec)
Calculating Nuclear repulsion               ... done (  0.0 sec) ENN=  15453.890752702890 Eh

SHARK setup successfully completed in   4.0 seconds

Maximum memory used throughout the entire GTOINT-calculation: 133.9 MB


           ************************************************************
           *        Program running with 36 parallel MPI-processes    *
           *              working on a common directory               *
           ************************************************************
-------------------------------------------------------------------------------
                                 ORCA SCF
-------------------------------------------------------------------------------

------------
SCF SETTINGS
------------
Hamiltonian:
 Density Functional     Method          .... DFT(GTOs)
 Exchange Functional    Exchange        .... PBE
   PBE kappa parameter   XKappa         ....  0.804000
   PBE mue parameter    XMuePBE         ....  0.219520
 Correlation Functional Correlation     .... PBE
   PBE beta parameter  CBetaPBE         ....  0.066725
 LDA part of GGA corr.  LDAOpt          .... PW91-LDA
 Gradients option       PostSCFGGA      .... off
 Hybrid DFT is turned on
   Fraction HF Exchange ScalHFX         ....  0.250000
   Scaling of DF-GGA-X  ScalDFX         ....  0.750000
   Scaling of DF-GGA-C  ScalDFC         ....  1.000000
   Scaling of DF-LDA-C  ScalLDAC        ....  1.000000
   Perturbative correction              ....  0.000000
   Density functional embedding theory  .... OFF
   NL short-range parameter             ....  6.900000
 RI-approximation to the Coulomb term is turned on
   Number of AuxJ basis functions       .... 4319
   RIJ-COSX (HFX calculated with COS-X)).... on


General Settings:
 Integral files         IntName         .... aBiCyDNH_orca
 Hartree-Fock type      HFTyp           .... RHF
 Total Charge           Charge          ....    0
 Multiplicity           Mult            ....    1
 Number of Electrons    NEL             ....  566
 Basis Dimension        Dim             .... 1351
 Nuclear Repulsion      ENuc            ....  15453.8907527029 Eh

Convergence Acceleration:
 DIIS                   CNVDIIS         .... on
   Start iteration      DIISMaxIt       ....    12
   Startup error        DIISStart       ....  0.200000
   # of expansion vecs  DIISMaxEq       ....     5
   Bias factor          DIISBfac        ....   1.050
   Max. coefficient     DIISMaxC        ....  10.000
 Trust-Rad. Augm. Hess. CNVTRAH         .... auto
   Auto Start mean grad. ratio tolernc. ....  1.125000
   Auto Start start iteration           ....    20
   Auto Start num. interpolation iter.  ....    10
   Max. Number of Micro iterations      ....    16
   Max. Number of Macro iterations      .... Maxiter - #DIIS iter
   Number of Davidson start vectors     ....     2
   Converg. threshold I  (grad. norm)   ....   5.000e-05
   Converg. threshold II (energy diff.) ....   1.000e-06
   Grad. Scal. Fac. for Micro threshold ....   0.100
   Minimum threshold for Micro iter.    ....   0.010
   NR start threshold (gradient norm)   ....   0.001
   Initial trust radius                 ....   0.400
   Minimum AH scaling param. (alpha)    ....   1.000
   Maximum AH scaling param. (alpha)    .... 1000.000
   Orbital update algorithm             .... Taylor
   White noise on init. David. guess    .... on
   Maximum white noise                  ....   0.010
   Quad. conv. algorithm                .... NR
 SOSCF                  CNVSOSCF        .... on
   Start iteration      SOSCFMaxIt      ....   150
   Startup grad/error   SOSCFStart      ....  0.003300
 Level Shifting         CNVShift        .... on
   Level shift para.    LevelShift      ....    0.2500
   Turn off err/grad.   ShiftErr        ....    0.0010
 Zerner damping         CNVZerner       .... off
 Static damping         CNVDamp         .... on
   Fraction old density DampFac         ....    0.7000
   Max. Damping (<1)    DampMax         ....    0.9800
   Min. Damping (>=0)   DampMin         ....    0.0000
   Turn off err/grad.   DampErr         ....    0.1000
 Fernandez-Rico         CNVRico         .... off

SCF Procedure:
 Maximum # iterations   MaxIter         ....   250
 SCF integral mode      SCFMode         .... Direct
   Integral package                     .... SHARK and LIBINT hybrid scheme
 Reset frequency        DirectResetFreq ....    20
 Integral Threshold     Thresh          ....  1.000e-10 Eh
 Primitive CutOff       TCut            ....  1.000e-11 Eh

Convergence Tolerance:
 Convergence Check Mode ConvCheckMode   .... Total+1el-Energy
 Convergence forced     ConvForced      .... 0
 Energy Change          TolE            ....  1.000e-06 Eh
 1-El. energy change                    ....  1.000e-03 Eh
 Orbital Gradient       TolG            ....  5.000e-05
 Orbital Rotation angle TolX            ....  5.000e-05
 DIIS Error             TolErr          ....  1.000e-06


Diagonalization of the overlap matrix:
Smallest eigenvalue                        ... 2.137e-04
Time for diagonalization                   ...    0.417 sec
Threshold for overlap eigenvalues          ... 1.000e-08
Number of eigenvalues below threshold      ... 0
Time for construction of square roots      ...    0.727 sec
Total time needed                          ...    1.150 sec

Time for model grid setup =    1.143 sec

------------------------------
INITIAL GUESS: MODEL POTENTIAL
------------------------------
Loading Hartree-Fock densities                     ... done
Calculating cut-offs                               ... done
Initializing the effective Hamiltonian             ... done
Setting up the integral package (SHARK)            ... done
Starting the Coulomb interaction                   ... done (   0.9 sec)
Reading the grid                                   ... done
Mapping shells                                     ... done
Starting the XC term evaluation                    ... done (   0.2 sec)
  promolecular density results
     # of electrons  =    565.961826922
     EX              =   -486.900927282
     EC              =    -19.518893023
     EX+EC           =   -506.419820305
Transforming the Hamiltonian                       ... done (   0.5 sec)
Diagonalizing the Hamiltonian                      ... done (   0.5 sec)
Back transforming the eigenvectors                 ... done (   0.1 sec)
Now organizing SCF variables                       ... done
                      ------------------
                      INITIAL GUESS DONE (   3.3 sec)
                      ------------------
-------------------
DFT GRID GENERATION
-------------------

General Integration Accuracy     IntAcc      ... 4.388
Radial Grid Type                 RadialGrid  ... OptM3 with GC (2021)
Angular Grid (max. ang.)         AngularGrid ... 4 (Lebedev-302)
Angular grid pruning method      GridPruning ... 4 (adaptive)
Weight generation scheme         WeightScheme... Becke
Basis function cutoff            BFCut       ... 1.0000e-10
Integration weight cutoff        WCut        ... 1.0000e-14
Angular grids for H and He will be reduced by one unit
Partially contracted basis set               ... off
Rotationally invariant grid construction     ... off

Total number of grid points                  ...   632528
Total number of batches                      ...     9949
Average number of points per batch           ...       63
Average number of grid points per atom       ...     4617
Time for grid setup =    4.696 sec

--------------------
COSX GRID GENERATION
--------------------

GRIDX 1
-------
General Integration Accuracy     IntAcc      ... 3.816
Radial Grid Type                 RadialGrid  ... OptM3 with GC (2021)
Angular Grid (max. ang.)         AngularGrid ... 1 (Lebedev-50)
Angular grid pruning method      GridPruning ... 4 (adaptive)
Weight generation scheme         WeightScheme... Becke
Basis function cutoff            BFCut       ... 1.0000e-10
Integration weight cutoff        WCut        ... 1.0000e-14
Angular grids for H and He will be reduced by one unit
Partially contracted basis set               ... on
Rotationally invariant grid construction     ... off

Total number of grid points                  ...    79712
Total number of batches                      ...     1311
Average number of points per batch           ...       60
Average number of grid points per atom       ...      582
UseSFitting                                  ... on

GRIDX 2
-------
General Integration Accuracy     IntAcc      ... 4.020
Radial Grid Type                 RadialGrid  ... OptM3 with GC (2021)
Angular Grid (max. ang.)         AngularGrid ... 2 (Lebedev-110)
Angular grid pruning method      GridPruning ... 4 (adaptive)
Weight generation scheme         WeightScheme... Becke
Basis function cutoff            BFCut       ... 1.0000e-10
Integration weight cutoff        WCut        ... 1.0000e-14
Angular grids for H and He will be reduced by one unit
Partially contracted basis set               ... on
Rotationally invariant grid construction     ... off

Total number of grid points                  ...   169441
Total number of batches                      ...     2721
Average number of points per batch           ...       62
Average number of grid points per atom       ...     1237
UseSFitting                                  ... on

GRIDX 3
-------
General Integration Accuracy     IntAcc      ... 4.338
Radial Grid Type                 RadialGrid  ... OptM3 with GC (2021)
Angular Grid (max. ang.)         AngularGrid ... 3 (Lebedev-194)
Angular grid pruning method      GridPruning ... 4 (adaptive)
Weight generation scheme         WeightScheme... Becke
Basis function cutoff            BFCut       ... 1.0000e-10
Integration weight cutoff        WCut        ... 1.0000e-14
Angular grids for H and He will be reduced by one unit
Partially contracted basis set               ... on
Rotationally invariant grid construction     ... off

Total number of grid points                  ...   367228
Total number of batches                      ...     5810
Average number of points per batch           ...       63
Average number of grid points per atom       ...     2680
UseSFitting                                  ... on

Time for X-Grid setup             =    5.127 sec

--------------
SCF ITERATIONS
--------------
ITER       Energy         Delta-E        Max-DP      RMS-DP      [F,P]     Damp
               ***  Starting incremental Fock matrix formation  ***
  0  -3938.5027169620   0.000000000000 0.09617393  0.00086361  0.2457264 0.7000
  1  -3939.1027632570  -0.600046294958 0.06110653  0.00058536  0.1104634 0.7000
                               ***Turning on DIIS***
  2  -3939.3403824799  -0.237619222892 0.07815824  0.00092198  0.0325429 0.0000
  3  -3939.7409178409  -0.400535361098 0.04782479  0.00041787  0.0596518 0.0000
  4  -3939.8093082184  -0.068390377475 0.01166787  0.00009851  0.0116639 0.0000
  5  -3939.8123248915  -0.003016673039 0.00330356  0.00003087  0.0042593 0.0000
                      *** Initiating the SOSCF procedure ***
                           *** Shutting down DIIS ***
                      *** Re-Reading the Fockian *** 
                      *** Removing any level shift *** 
ITER      Energy       Delta-E        Grad      Rot      Max-DP    RMS-DP
  6  -3939.81252853  -0.0002036421  0.000215  0.000215  0.001176  0.000010
               *** Restarting incremental Fock matrix formation ***
  7  -3939.81236308   0.0001654558  0.000134  0.000536  0.001175  0.000007
  8  -3939.81236161   0.0000014653  0.000383  0.000604  0.000878  0.000004
  9  -3939.81236697  -0.0000053613  0.000067  0.000167  0.000242  0.000002
 10  -3939.81236654   0.0000004335  0.000068  0.000099  0.000133  0.000001
                  ***Gradient check signals convergence***
              ***Rediagonalizing the Fockian in SOSCF/NRSCF***

               *****************************************************
               *                     SUCCESS                       *
               *           SCF CONVERGED AFTER  11 CYCLES          *
               *****************************************************

Old exchange energy                            =   -123.770001766 Eh
New exchange energy                            =   -123.770046655 Eh
Exchange energy change after final integration =     -0.000044889 Eh
Total energy after final integration           =  -3939.812412097 Eh
Final COS-X integration done in                =    22.321 sec

----------------
TOTAL SCF ENERGY
----------------

Total Energy       :        -3939.81241210 Eh         -107207.74607 eV

Components:
Nuclear Repulsion  :        15453.89075270 Eh          420521.74629 eV
Electronic Energy  :       -19393.70316480 Eh         -527729.49236 eV
One Electron Energy:       -36221.04819161 Eh         -985624.82949 eV
Two Electron Energy:        16827.34502681 Eh          457895.33713 eV
Max COSX asymmetry :            0.00001262 Eh               0.00034 eV

Virial components:
Potential Energy   :        -7844.33446786 Eh         -213455.19272 eV
Kinetic Energy     :         3904.52205576 Eh          106247.44665 eV
Virial Ratio       :            2.00903833


DFT components:
N(Alpha)           :      283.000734897732 electrons
N(Beta)            :      283.000734897732 electrons
N(Total)           :      566.001469795463 electrons
E(X)               :     -370.609350757447 Eh       
E(C)               :      -19.476726847488 Eh       
E(XC)              :     -390.086077604935 Eh       
DFET-embed. en.    :        0.000000000000 Eh       

---------------
SCF CONVERGENCE
---------------

  Last Energy change         ...   -6.6754e-07  Tolerance :   1.0000e-06
  Last MAX-Density change    ...    5.3291e-15  Tolerance :   1.0000e-05
  Last RMS-Density change    ...    2.9939e-17  Tolerance :   1.0000e-06
  Last Orbital Gradient      ...    1.0428e-05  Tolerance :   5.0000e-05
  Last Orbital Rotation      ...    4.1100e-05  Tolerance :   5.0000e-05

             **** THE GBW FILE WAS UPDATED (aBiCyDNH_orca.gbw) ****
             **** DENSITY aBiCyDNH_orca.scfp WAS UPDATED ****
[...]
freq.     314.32  E(vib)   ...       0.25 
freq.     321.90  E(vib)   ...       0.25 
freq.     324.70  E(vib)   ...       0.24 
freq.     333.48  E(vib)   ...       0.24 
freq.     338.47  E(vib)   ...       0.23 
freq.     340.88  E(vib)   ...       0.23 
freq.     345.61  E(vib)   ...       0.23 
freq.     346.35  E(vib)   ...       0.23 
freq.     353.31  E(vib)   ...       0.22 
freq.     356.97  E(vib)   ...       0.22 
freq.     360.75  E(vib)   ...       0.22 
freq.     364.22  E(vib)   ...       0.22 
freq.     364.87  E(vib)   ...       0.22 
freq.     375.71  E(vib)   ...       0.21 
freq.     380.53  E(vib)   ...       0.21 
freq.     398.97  E(vib)   ...       0.19 
freq.     408.20  E(vib)   ...       0.19 
freq.     412.92  E(vib)   ...       0.19 
freq.     420.05  E(vib)   ...       0.18 
freq.     424.04  E(vib)   ...       0.18 
freq.     427.31  E(vib)   ...       0.18 
freq.     431.54  E(vib)   ...       0.18 
freq.     434.67  E(vib)   ...       0.17 
freq.     440.22  E(vib)   ...       0.17 
freq.     443.37  E(vib)   ...       0.17 
freq.     448.46  E(vib)   ...       0.17 
freq.     451.15  E(vib)   ...       0.16 
freq.     456.11  E(vib)   ...       0.16 
freq.     457.16  E(vib)   ...       0.16 
freq.     465.02  E(vib)   ...       0.16 
freq.     478.04  E(vib)   ...       0.15 
freq.     483.81  E(vib)   ...       0.15 
freq.     489.15  E(vib)   ...       0.15 
freq.     490.70  E(vib)   ...       0.15 
freq.     495.61  E(vib)   ...       0.14 
freq.     496.54  E(vib)   ...       0.14 
freq.     501.11  E(vib)   ...       0.14 
freq.     519.95  E(vib)   ...       0.13 
freq.     522.21  E(vib)   ...       0.13 
freq.     524.05  E(vib)   ...       0.13 
freq.     531.00  E(vib)   ...       0.13 
freq.     534.88  E(vib)   ...       0.13 
freq.     544.71  E(vib)   ...       0.12 
freq.     549.92  E(vib)   ...       0.12 
freq.     559.02  E(vib)   ...       0.12 
freq.     563.00  E(vib)   ...       0.11 
freq.     568.36  E(vib)   ...       0.11 
freq.     570.90  E(vib)   ...       0.11 
freq.     572.97  E(vib)   ...       0.11 
freq.     596.54  E(vib)   ...       0.10 
freq.     601.57  E(vib)   ...       0.10 
freq.     603.49  E(vib)   ...       0.10 
freq.     611.71  E(vib)   ...       0.10 
freq.     613.25  E(vib)   ...       0.10 
freq.     616.83  E(vib)   ...       0.09 
freq.     620.38  E(vib)   ...       0.09 
freq.     621.67  E(vib)   ...       0.09 
freq.     622.68  E(vib)   ...       0.09 
freq.     626.57  E(vib)   ...       0.09 
freq.     630.71  E(vib)   ...       0.09 
freq.     639.39  E(vib)   ...       0.09 
freq.     643.85  E(vib)   ...       0.09 
freq.     660.58  E(vib)   ...       0.08 
freq.     664.60  E(vib)   ...       0.08 
freq.     666.73  E(vib)   ...       0.08 
freq.     669.32  E(vib)   ...       0.08 
freq.     672.83  E(vib)   ...       0.08 
freq.     677.47  E(vib)   ...       0.08 
freq.     678.75  E(vib)   ...       0.08 
freq.     686.59  E(vib)   ...       0.07 
freq.     687.85  E(vib)   ...       0.07 
freq.     738.74  E(vib)   ...       0.06 
freq.     754.14  E(vib)   ...       0.06 
freq.     755.45  E(vib)   ...       0.06 
freq.     759.73  E(vib)   ...       0.06 
freq.     767.02  E(vib)   ...       0.06 
freq.     769.05  E(vib)   ...       0.06 
freq.     770.75  E(vib)   ...       0.05 
freq.     776.97  E(vib)   ...       0.05 
freq.     780.93  E(vib)   ...       0.05 
freq.     785.80  E(vib)   ...       0.05 
freq.     791.95  E(vib)   ...       0.05 
freq.     795.13  E(vib)   ...       0.05 
freq.     797.13  E(vib)   ...       0.05 
freq.     804.58  E(vib)   ...       0.05 
freq.     811.87  E(vib)   ...       0.05 
freq.     830.73  E(vib)   ...       0.04 
freq.     834.38  E(vib)   ...       0.04 
freq.     834.89  E(vib)   ...       0.04 
freq.     846.78  E(vib)   ...       0.04 
freq.     866.13  E(vib)   ...       0.04 
freq.     892.86  E(vib)   ...       0.03 
freq.     900.45  E(vib)   ...       0.03 
freq.     910.01  E(vib)   ...       0.03 
freq.     915.77  E(vib)   ...       0.03 
freq.     923.04  E(vib)   ...       0.03 
freq.     926.63  E(vib)   ...       0.03 
freq.     930.87  E(vib)   ...       0.03 
freq.     933.92  E(vib)   ...       0.03 
freq.     936.59  E(vib)   ...       0.03 
freq.     937.96  E(vib)   ...       0.03 
freq.     942.95  E(vib)   ...       0.03 
freq.     950.74  E(vib)   ...       0.03 
freq.     963.58  E(vib)   ...       0.03 
freq.     966.25  E(vib)   ...       0.03 
freq.     972.99  E(vib)   ...       0.03 
freq.     977.65  E(vib)   ...       0.03 
freq.     980.91  E(vib)   ...       0.02 
freq.     982.36  E(vib)   ...       0.02 
freq.     994.82  E(vib)   ...       0.02 
freq.    1004.35  E(vib)   ...       0.02 
freq.    1005.38  E(vib)   ...       0.02 
freq.    1008.90  E(vib)   ...       0.02 
freq.    1020.38  E(vib)   ...       0.02 
freq.    1022.62  E(vib)   ...       0.02 
freq.    1025.41  E(vib)   ...       0.02 
freq.    1032.27  E(vib)   ...       0.02 
freq.    1032.87  E(vib)   ...       0.02 
freq.    1038.25  E(vib)   ...       0.02 
freq.    1042.78  E(vib)   ...       0.02 
freq.    1045.14  E(vib)   ...       0.02 
freq.    1047.23  E(vib)   ...       0.02 
freq.    1053.08  E(vib)   ...       0.02 
freq.    1055.24  E(vib)   ...       0.02 
freq.    1056.42  E(vib)   ...       0.02 
freq.    1058.05  E(vib)   ...       0.02 
freq.    1059.14  E(vib)   ...       0.02 
freq.    1067.33  E(vib)   ...       0.02 
freq.    1069.31  E(vib)   ...       0.02 
freq.    1071.57  E(vib)   ...       0.02 
freq.    1074.93  E(vib)   ...       0.02 
freq.    1078.48  E(vib)   ...       0.02 
freq.    1083.75  E(vib)   ...       0.02 
freq.    1085.08  E(vib)   ...       0.02 
freq.    1091.06  E(vib)   ...       0.02 
freq.    1097.81  E(vib)   ...       0.02 
freq.    1101.29  E(vib)   ...       0.02 
freq.    1102.78  E(vib)   ...       0.02 
freq.    1105.80  E(vib)   ...       0.02 
freq.    1108.91  E(vib)   ...       0.02 
freq.    1111.76  E(vib)   ...       0.01 
freq.    1113.44  E(vib)   ...       0.01 
freq.    1116.96  E(vib)   ...       0.01 
freq.    1118.24  E(vib)   ...       0.01 
freq.    1119.78  E(vib)   ...       0.01 
freq.    1121.35  E(vib)   ...       0.01 
freq.    1122.79  E(vib)   ...       0.01 
freq.    1126.78  E(vib)   ...       0.01 
freq.    1127.76  E(vib)   ...       0.01 
freq.    1129.29  E(vib)   ...       0.01 
freq.    1130.78  E(vib)   ...       0.01 
freq.    1132.82  E(vib)   ...       0.01 
freq.    1139.66  E(vib)   ...       0.01 
freq.    1140.84  E(vib)   ...       0.01 
freq.    1141.67  E(vib)   ...       0.01 
freq.    1142.57  E(vib)   ...       0.01 
freq.    1143.76  E(vib)   ...       0.01 
freq.    1144.37  E(vib)   ...       0.01 
freq.    1145.49  E(vib)   ...       0.01 
freq.    1145.98  E(vib)   ...       0.01 
freq.    1146.62  E(vib)   ...       0.01 
freq.    1150.44  E(vib)   ...       0.01 
freq.    1151.80  E(vib)   ...       0.01 
freq.    1152.48  E(vib)   ...       0.01 
freq.    1155.08  E(vib)   ...       0.01 
freq.    1156.29  E(vib)   ...       0.01 
freq.    1158.02  E(vib)   ...       0.01 
freq.    1159.31  E(vib)   ...       0.01 
freq.    1166.13  E(vib)   ...       0.01 
freq.    1171.16  E(vib)   ...       0.01 
freq.    1173.72  E(vib)   ...       0.01 
freq.    1178.59  E(vib)   ...       0.01 
freq.    1179.70  E(vib)   ...       0.01 
freq.    1185.95  E(vib)   ...       0.01 
freq.    1187.20  E(vib)   ...       0.01 
freq.    1190.46  E(vib)   ...       0.01 
freq.    1191.58  E(vib)   ...       0.01 
freq.    1209.63  E(vib)   ...       0.01 
freq.    1221.49  E(vib)   ...       0.01 
freq.    1225.62  E(vib)   ...       0.01 
freq.    1225.99  E(vib)   ...       0.01 
freq.    1231.90  E(vib)   ...       0.01 
freq.    1234.55  E(vib)   ...       0.01 
freq.    1235.74  E(vib)   ...       0.01 
freq.    1252.71  E(vib)   ...       0.01 
freq.    1255.24  E(vib)   ...       0.01 
freq.    1255.66  E(vib)   ...       0.01 
freq.    1260.92  E(vib)   ...       0.01 
freq.    1261.61  E(vib)   ...       0.01 
freq.    1267.28  E(vib)   ...       0.01 
freq.    1270.13  E(vib)   ...       0.01 
freq.    1279.15  E(vib)   ...       0.01 
freq.    1281.03  E(vib)   ...       0.01 
freq.    1285.11  E(vib)   ...       0.01 
freq.    1287.44  E(vib)   ...       0.01 
freq.    1289.62  E(vib)   ...       0.01 
freq.    1290.17  E(vib)   ...       0.01 
freq.    1294.13  E(vib)   ...       0.01 
freq.    1297.25  E(vib)   ...       0.01 
freq.    1300.57  E(vib)   ...       0.01 
freq.    1306.37  E(vib)   ...       0.01 
freq.    1308.48  E(vib)   ...       0.01 
freq.    1313.00  E(vib)   ...       0.01 
freq.    1318.64  E(vib)   ...       0.01 
freq.    1322.48  E(vib)   ...       0.01 
freq.    1323.14  E(vib)   ...       0.01 
freq.    1326.80  E(vib)   ...       0.01 
freq.    1327.33  E(vib)   ...       0.01 
freq.    1328.66  E(vib)   ...       0.01 
freq.    1329.78  E(vib)   ...       0.01 
freq.    1332.34  E(vib)   ...       0.01 
freq.    1335.43  E(vib)   ...       0.01 
freq.    1336.67  E(vib)   ...       0.01 
freq.    1343.86  E(vib)   ...       0.01 
freq.    1345.17  E(vib)   ...       0.01 
freq.    1347.61  E(vib)   ...       0.01 
freq.    1348.78  E(vib)   ...       0.01 
freq.    1350.60  E(vib)   ...       0.01 
freq.    1351.55  E(vib)   ...       0.01 
freq.    1353.81  E(vib)   ...       0.01 
freq.    1356.62  E(vib)   ...       0.01 
freq.    1360.57  E(vib)   ...       0.01 
freq.    1366.33  E(vib)   ...       0.01 
freq.    1372.03  E(vib)   ...       0.01 
freq.    1375.74  E(vib)   ...       0.01 
freq.    1381.40  E(vib)   ...       0.01 
freq.    1383.24  E(vib)   ...       0.00 
freq.    1387.99  E(vib)   ...       0.00 
freq.    1389.35  E(vib)   ...       0.00 
freq.    1390.08  E(vib)   ...       0.00 
freq.    1391.22  E(vib)   ...       0.00 
freq.    1392.92  E(vib)   ...       0.00 
freq.    1396.45  E(vib)   ...       0.00 
freq.    1397.73  E(vib)   ...       0.00 
freq.    1401.15  E(vib)   ...       0.00 
freq.    1401.60  E(vib)   ...       0.00 
freq.    1404.51  E(vib)   ...       0.00 
freq.    1406.16  E(vib)   ...       0.00 
freq.    1409.38  E(vib)   ...       0.00 
freq.    1409.71  E(vib)   ...       0.00 
freq.    1413.34  E(vib)   ...       0.00 
freq.    1414.71  E(vib)   ...       0.00 
freq.    1415.89  E(vib)   ...       0.00 
freq.    1416.80  E(vib)   ...       0.00 
freq.    1419.65  E(vib)   ...       0.00 
freq.    1421.79  E(vib)   ...       0.00 
freq.    1424.18  E(vib)   ...       0.00 
freq.    1426.29  E(vib)   ...       0.00 
freq.    1427.72  E(vib)   ...       0.00 
freq.    1429.65  E(vib)   ...       0.00 
freq.    1430.08  E(vib)   ...       0.00 
freq.    1431.35  E(vib)   ...       0.00 
freq.    1435.65  E(vib)   ...       0.00 
freq.    1438.08  E(vib)   ...       0.00 
freq.    1439.57  E(vib)   ...       0.00 
freq.    1443.89  E(vib)   ...       0.00 
freq.    1445.62  E(vib)   ...       0.00 
freq.    1448.09  E(vib)   ...       0.00 
freq.    1448.75  E(vib)   ...       0.00 
freq.    1449.48  E(vib)   ...       0.00 
freq.    1450.97  E(vib)   ...       0.00 
freq.    1452.08  E(vib)   ...       0.00 
freq.    1453.40  E(vib)   ...       0.00 
freq.    1457.47  E(vib)   ...       0.00 
freq.    1466.14  E(vib)   ...       0.00 
freq.    1475.16  E(vib)   ...       0.00 
freq.    1475.50  E(vib)   ...       0.00 
freq.    1483.05  E(vib)   ...       0.00 
freq.    1486.26  E(vib)   ...       0.00 
freq.    1489.24  E(vib)   ...       0.00 
freq.    1489.62  E(vib)   ...       0.00 
freq.    1490.77  E(vib)   ...       0.00 
freq.    1495.85  E(vib)   ...       0.00 
freq.    1498.23  E(vib)   ...       0.00 
freq.    1503.00  E(vib)   ...       0.00 
freq.    1504.70  E(vib)   ...       0.00 
freq.    1505.16  E(vib)   ...       0.00 
freq.    1513.95  E(vib)   ...       0.00 
freq.    1532.07  E(vib)   ...       0.00 
freq.    1648.89  E(vib)   ...       0.00 
freq.    1659.45  E(vib)   ...       0.00 
freq.    1676.28  E(vib)   ...       0.00 
freq.    2919.13  E(vib)   ...       0.00 
freq.    2922.54  E(vib)   ...       0.00 
freq.    2944.26  E(vib)   ...       0.00 
freq.    2949.80  E(vib)   ...       0.00 
freq.    2951.84  E(vib)   ...       0.00 
freq.    2954.67  E(vib)   ...       0.00 
freq.    2955.18  E(vib)   ...       0.00 
freq.    2957.09  E(vib)   ...       0.00 
freq.    2958.39  E(vib)   ...       0.00 
freq.    2960.00  E(vib)   ...       0.00 
freq.    2962.12  E(vib)   ...       0.00 
freq.    2963.52  E(vib)   ...       0.00 
freq.    2965.36  E(vib)   ...       0.00 
freq.    2967.67  E(vib)   ...       0.00 
freq.    2971.37  E(vib)   ...       0.00 
freq.    2975.39  E(vib)   ...       0.00 
freq.    2975.62  E(vib)   ...       0.00 
freq.    2977.18  E(vib)   ...       0.00 
freq.    2978.74  E(vib)   ...       0.00 
freq.    2983.11  E(vib)   ...       0.00 
freq.    2984.93  E(vib)   ...       0.00 
freq.    2991.57  E(vib)   ...       0.00 
freq.    2997.87  E(vib)   ...       0.00 
freq.    3000.01  E(vib)   ...       0.00 
freq.    3003.07  E(vib)   ...       0.00 
freq.    3003.77  E(vib)   ...       0.00 
freq.    3008.29  E(vib)   ...       0.00 
freq.    3008.59  E(vib)   ...       0.00 
freq.    3010.37  E(vib)   ...       0.00 
freq.    3011.89  E(vib)   ...       0.00 
freq.    3014.93  E(vib)   ...       0.00 
freq.    3029.56  E(vib)   ...       0.00 
freq.    3036.26  E(vib)   ...       0.00 
freq.    3038.60  E(vib)   ...       0.00 
freq.    3039.71  E(vib)   ...       0.00 
freq.    3042.98  E(vib)   ...       0.00 
freq.    3044.26  E(vib)   ...       0.00 
freq.    3055.66  E(vib)   ...       0.00 
freq.    3057.88  E(vib)   ...       0.00 
freq.    3059.29  E(vib)   ...       0.00 
freq.    3085.78  E(vib)   ...       0.00 
freq.    3086.21  E(vib)   ...       0.00 
freq.    3141.94  E(vib)   ...       0.00 
freq.    3158.27  E(vib)   ...       0.00 
freq.    3177.03  E(vib)   ...       0.00 
freq.    3182.72  E(vib)   ...       0.00 
freq.    3371.40  E(vib)   ...       0.00 
freq.    3380.02  E(vib)   ...       0.00 
freq.    3385.79  E(vib)   ...       0.00 
freq.    3389.90  E(vib)   ...       0.00 
freq.    3413.13  E(vib)   ...       0.00 
freq.    3427.96  E(vib)   ...       0.00 
freq.    3443.01  E(vib)   ...       0.00 
freq.    3462.41  E(vib)   ...       0.00 
freq.    3486.85  E(vib)   ...       0.00 
freq.    3533.06  E(vib)   ...       0.00 
freq.    3571.19  E(vib)   ...       0.00 
freq.    3597.27  E(vib)   ...       0.00 
freq.    3615.76  E(vib)   ...       0.00 
freq.    3635.40  E(vib)   ...       0.00 
freq.    3663.47  E(vib)   ...       0.00 
freq.    3668.73  E(vib)   ...       0.00 
freq.    3670.12  E(vib)   ...       0.00 

------------
INNER ENERGY
------------

The inner energy is: U= E(el) + E(ZPE) + E(vib) + E(rot) + E(trans)
    E(el)   - is the total energy from the electronic structure calculation
              = E(kin-el) + E(nuc-el) + E(el-el) + E(nuc-nuc)
    E(ZPE)  - the the zero temperature vibrational energy from the frequency calculation
    E(vib)  - the the finite temperature correction to E(ZPE) due to population
              of excited vibrational states
    E(rot)  - is the rotational thermal energy
    E(trans)- is the translational thermal energy

Summary of contributions to the inner energy U:
Electronic energy                ...  -3940.01234245 Eh
Zero point energy                ...      1.13490614 Eh     712.16 kcal/mol
Thermal vibrational correction   ...      0.05773219 Eh      36.23 kcal/mol
Thermal rotational correction    ...      0.00141627 Eh       0.89 kcal/mol
Thermal translational correction ...      0.00141627 Eh       0.89 kcal/mol
-----------------------------------------------------------------------
Total thermal energy                  -3938.81687157 Eh


Summary of corrections to the electronic energy:
(perhaps to be used in another calculation)
Total thermal correction                  0.06056474 Eh      38.00 kcal/mol
Non-thermal (ZPE) correction              1.13490614 Eh     712.16 kcal/mol
-----------------------------------------------------------------------
Total correction                          1.19547087 Eh     750.17 kcal/mol


--------
ENTHALPY
--------

The enthalpy is H = U + kB*T
                kB is Boltzmann's constant
Total free energy                 ...  -3938.81687157 Eh 
Thermal Enthalpy correction       ...      0.00094421 Eh       0.59 kcal/mol
-----------------------------------------------------------------------
Total Enthalpy                    ...  -3938.81592736 Eh


Note: Only C1 symmetry has been detected, increase convergence thresholds 
      if your molecule has a higher symmetry. Symmetry factor of 1.0 is   
      used for the rotational entropy correction. 
 

Note: Rotational entropy computed according to Herzberg 
Infrared and Raman Spectra, Chapter V,1, Van Nostrand Reinhold, 1945 
Point Group:  C1, Symmetry Number:   1  
Rotational constants in cm-1:     0.001227     0.000917     0.000718 

Vibrational entropy computed according to the QRRHO of S. Grimme
Chem.Eur.J. 2012 18 9955


-------
ENTROPY
-------

The entropy contributions are T*S = T*(S(el)+S(vib)+S(rot)+S(trans))
     S(el)   - electronic entropy
     S(vib)  - vibrational entropy
     S(rot)  - rotational entropy
     S(trans)- translational entropy
The entropies will be listed as multiplied by the temperature to get
units of energy

Electronic entropy                ...      0.00000000 Eh      0.00 kcal/mol
Vibrational entropy               ...      0.09803730 Eh     61.52 kcal/mol
Rotational entropy                ...      0.01939474 Eh     12.17 kcal/mol
Translational entropy             ...      0.02222811 Eh     13.95 kcal/mol
-----------------------------------------------------------------------
Final entropy term                ...      0.13966015 Eh     87.64 kcal/mol

In case the symmetry of your molecule has not been determined correctly
or in case you have a reason to use a different symmetry number we print 
out the resulting rotational entropy values for sn=1,12 :
 --------------------------------------------------------
|  sn= 1 | S(rot)=       0.01939474 Eh     12.17 kcal/mol|
|  sn= 2 | S(rot)=       0.01874028 Eh     11.76 kcal/mol|
|  sn= 3 | S(rot)=       0.01835745 Eh     11.52 kcal/mol|
|  sn= 4 | S(rot)=       0.01808583 Eh     11.35 kcal/mol|
|  sn= 5 | S(rot)=       0.01787514 Eh     11.22 kcal/mol|
|  sn= 6 | S(rot)=       0.01770299 Eh     11.11 kcal/mol|
|  sn= 7 | S(rot)=       0.01755745 Eh     11.02 kcal/mol|
|  sn= 8 | S(rot)=       0.01743137 Eh     10.94 kcal/mol|
|  sn= 9 | S(rot)=       0.01732016 Eh     10.87 kcal/mol|
|  sn=10 | S(rot)=       0.01722068 Eh     10.81 kcal/mol|
|  sn=11 | S(rot)=       0.01713069 Eh     10.75 kcal/mol|
|  sn=12 | S(rot)=       0.01704854 Eh     10.70 kcal/mol|
 --------------------------------------------------------


-------------------
GIBBS FREE ENERGY
-------------------

The Gibbs free energy is G = H - T*S

Total enthalpy                    ...  -3938.81592736 Eh 
Total entropy correction          ...     -0.13966015 Eh    -87.64 kcal/mol
-----------------------------------------------------------------------
Final Gibbs free energy         ...  -3938.95558752 Eh

For completeness - the Gibbs free energy minus the electronic energy
G-E(el)                           ...      1.05675493 Eh    663.12 kcal/mol


Timings for individual modules:

Sum of individual times         ...     6418.129 sec (= 106.969 min)
GTO integral calculation        ...        8.742 sec (=   0.146 min)   0.1 %
SCF iterations                  ...      168.104 sec (=   2.802 min)   2.6 %
Analytical frequency calculation...     6241.284 sec (= 104.021 min)  97.2 %
                             ****ORCA TERMINATED NORMALLY****
TOTAL RUN TIME: 0 days 1 hours 47 minutes 5 seconds 283 msec
