
                                 *****************
                                 * O   R   C   A *
                                 *****************

                                            #,                                       
                                            ###                                      
                                            ####                                     
                                            #####                                    
                                            ######                                   
                                           ########,                                 
                                     ,,################,,,,,                         
                               ,,#################################,,                 
                          ,,##########################################,,             
                       ,#########################################, ''#####,          
                    ,#############################################,,   '####,        
                  ,##################################################,,,,####,       
                ,###########''''           ''''###############################       
              ,#####''   ,,,,##########,,,,          '''####'''          '####       
            ,##' ,,,,###########################,,,                        '##       
           ' ,,###''''                  '''############,,,                           
         ,,##''                                '''############,,,,        ,,,,,,###''
      ,#''                                            '''#######################'''  
     '                                                          ''''####''''         
             ,#######,   #######,   ,#######,      ##                                
            ,#'     '#,  ##    ##  ,#'     '#,    #''#        ######   ,####,        
            ##       ##  ##   ,#'  ##            #'  '#       #        #'  '#        
            ##       ##  #######   ##           ,######,      #####,   #    #        
            '#,     ,#'  ##    ##  '#,     ,#' ,#      #,         ##   #,  ,#        
             '#######'   ##     ##  '#######'  #'      '#     #####' # '####'        



                  #######################################################
                  #                        -***-                        #
                  #          Department of theory and spectroscopy      #
                  #    Directorship and core code : Frank Neese         #
                  #        Max Planck Institute fuer Kohlenforschung    #
                  #                Kaiser Wilhelm Platz 1               #
                  #                 D-45470 Muelheim/Ruhr               #
                  #                      Germany                        #
                  #                                                     #
                  #                  All rights reserved                #
                  #                        -***-                        #
                  #######################################################


                         Program Version 5.0.1 -  RELEASE  -


 With contributions from (in alphabetic order):
   Daniel Aravena         : Magnetic Suceptibility
   Michael Atanasov       : Ab Initio Ligand Field Theory (pilot matlab implementation)
   Alexander A. Auer      : GIAO ZORA, VPT2 properties, NMR spectrum
   Ute Becker             : Parallelization
   Giovanni Bistoni       : ED, misc. LED, open-shell LED, HFLD
   Martin Brehm           : Molecular dynamics
   Dmytro Bykov           : SCF Hessian
   Vijay G. Chilkuri      : MRCI spin determinant printing, contributions to CSF-ICE
   Dipayan Datta          : RHF DLPNO-CCSD density
   Achintya Kumar Dutta   : EOM-CC, STEOM-CC
   Dmitry Ganyushin       : Spin-Orbit,Spin-Spin,Magnetic field MRCI
   Miquel Garcia          : C-PCM and meta-GGA Hessian, CC/C-PCM, Gaussian charge scheme
   Yang Guo               : DLPNO-NEVPT2, F12-NEVPT2, CIM, IAO-localization
   Andreas Hansen         : Spin unrestricted coupled pair/coupled cluster methods
   Benjamin Helmich-Paris : MC-RPA, TRAH-SCF, COSX integrals
   Lee Huntington         : MR-EOM, pCC
   Robert Izsak           : Overlap fitted RIJCOSX, COSX-SCS-MP3, EOM
   Marcus Kettner         : VPT2
   Christian Kollmar      : KDIIS, OOCD, Brueckner-CCSD(T), CCSD density, CASPT2, CASPT2-K
   Simone Kossmann        : Meta GGA functionals, TD-DFT gradient, OOMP2, MP2 Hessian
   Martin Krupicka        : Initial AUTO-CI
   Lucas Lang             : DCDCAS
   Marvin Lechner         : AUTO-CI (C++ implementation), FIC-MRCC
   Dagmar Lenk            : GEPOL surface, SMD
   Dimitrios Liakos       : Extrapolation schemes; Compound Job, initial MDCI parallelization
   Dimitrios Manganas     : Further ROCIS development; embedding schemes
   Dimitrios Pantazis     : SARC Basis sets
   Anastasios Papadopoulos: AUTO-CI, single reference methods and gradients
   Taras Petrenko         : DFT Hessian,TD-DFT gradient, ASA, ECA, R-Raman, ABS, FL, XAS/XES, NRVS
   Peter Pinski           : DLPNO-MP2, DLPNO-MP2 Gradient
   Christoph Reimann      : Effective Core Potentials
   Marius Retegan         : Local ZFS, SOC
   Christoph Riplinger    : Optimizer, TS searches, QM/MM, DLPNO-CCSD(T), (RO)-DLPNO pert. Triples
   Tobias Risthaus        : Range-separated hybrids, TD-DFT gradient, RPA, STAB
   Michael Roemelt        : Original ROCIS implementation
   Masaaki Saitow         : Open-shell DLPNO-CCSD energy and density
   Barbara Sandhoefer     : DKH picture change effects
   Avijit Sen             : IP-ROCIS
   Kantharuban Sivalingam : CASSCF convergence, NEVPT2, FIC-MRCI
   Bernardo de Souza      : ESD, SOC TD-DFT
   Georgi Stoychev        : AutoAux, RI-MP2 NMR, DLPNO-MP2 response
   Willem Van den Heuvel  : Paramagnetic NMR
   Boris Wezisla          : Elementary symmetry handling
   Frank Wennmohs         : Technical directorship


 We gratefully acknowledge several colleagues who have allowed us to
 interface, adapt or use parts of their codes:
   Stefan Grimme, W. Hujo, H. Kruse, P. Pracht,  : VdW corrections, initial TS optimization,
                  C. Bannwarth, S. Ehlert          DFT functionals, gCP, sTDA/sTD-DF
   Ed Valeev, F. Pavosevic, A. Kumar             : LibInt (2-el integral package), F12 methods
   Garnet Chan, S. Sharma, J. Yang, R. Olivares  : DMRG
   Ulf Ekstrom                                   : XCFun DFT Library
   Mihaly Kallay                                 : mrcc  (arbitrary order and MRCC methods)
   Jiri Pittner, Ondrej Demel                    : Mk-CCSD
   Frank Weinhold                                : gennbo (NPA and NBO analysis)
   Christopher J. Cramer and Donald G. Truhlar   : smd solvation model
   Lars Goerigk                                  : TD-DFT with DH, B97 family of functionals
   V. Asgeirsson, H. Jonsson                     : NEB implementation
   FAccTs GmbH                                   : IRC, NEB, NEB-TS, DLPNO-Multilevel, CI-OPT
                                                   MM, QMMM, 2- and 3-layer-ONIOM, Crystal-QMMM,
                                                   LR-CPCM, SF, NACMEs, symmetry and pop. for TD-DFT,
                                                   nearIR, NL-DFT gradient (VV10), updates on ESD,
                                                   ML-optimized integration grids
   S Lehtola, MJT Oliveira, MAL Marques          : LibXC Library
   Liviu Ungur et al                             : ANISO software


 Your calculation uses the libint2 library for the computation of 2-el integrals
 For citations please refer to: http://libint.valeyev.net

 Your ORCA version has been built with support for libXC version: 5.1.0
 For citations please refer to: https://tddft.org/programs/libxc/

 This ORCA versions uses:
   CBLAS   interface :  Fast vector & matrix operations
   LAPACKE interface :  Fast linear algebra routines
   SCALAPACK package :  Parallel linear algebra routines
   Shared memory     :  Shared parallel matrices
   BLAS/LAPACK       :  OpenBLAS 0.3.15  USE64BITINT DYNAMIC_ARCH NO_AFFINITY Zen SINGLE_THREADED
        Core in use  :  Zen
   Copyright (c) 2011-2014, The OpenBLAS Project


Your calculation utilizes the atom-pairwise dispersion correction
based on tight binding partial charges (D4)
Cite in your paper:
E.Caldeweyher, C.Bannwarth, S.Grimme, J.Chem.Phys., (2017), 147, 034112.
E.Caldeweyher, S.Ehlert, A.Hansen, H.Neugebauer, S.Grimme, J.Chem.Phys., (2018), in progress.
   

================================================================================

----- Orbital basis set information -----
Your calculation utilizes the basis: def2-SVP
   F. Weigend and R. Ahlrichs, Phys. Chem. Chem. Phys. 7, 3297 (2005).

----- AuxJ basis set information -----
Your calculation utilizes the auxiliary basis: def2/J
   F. Weigend, Phys. Chem. Chem. Phys. 8, 1057 (2006).

================================================================================
                                        WARNINGS
                       Please study these warnings very carefully!
================================================================================



WARNING: Found flag for RIJCOSX approximation but no HF exchange needed!
  ===> : RIJCOSX  will be disabled and Split-RI-J is turned on

WARNING: Geometry Optimization
  ===> : Switching off AutoStart
         For restart on a previous wavefunction, please use MOREAD

INFO   : the flag for use of the SHARK integral package has been found!

================================================================================
                                       INPUT FILE
================================================================================
NAME = aBiCyDNH2_opt_orca.inp
|  1> ! Opt BP86 def2-SVP def2/J RIJCOSX D4
|  2> %output 
|  3> xyzfile=True 
|  4> end 
|  5> %scf 
|  6> maxiter 250 
|  7> end
|  8> %output
|  9> Print[P_Hirshfeld] = 1
| 10> end
| 11> % maxcore
| 12> 4000
| 13> %pal nprocs 36
| 14> end
| 15> *xyz 1 1
| 16> C   28.02787246  -19.63035853 -15.44499796
| 17> C   27.62394694  -20.79853824 -16.37350460
| 18> C   28.80554305  -21.14859201 -17.28912582
| 19> C   29.16945666  -19.87213897 -18.05732936
| 20> C   29.49364848  -18.73988628 -17.06419649
| 21> C   29.77989998  -17.43638256 -17.82795587
| 22> O   27.19907007  -21.91239839 -15.63624569
| 23> O   28.39827385  -22.18747617 -18.13550387
| 24> O   30.26862891  -20.11430608 -18.92642163
| 25> O   28.37447020  -18.51960347 -16.21691830
| 26> H   27.15578857  -19.31661771 -14.85403444
| 27> H   26.79792342  -20.43540888 -17.00567958
| 28> H   29.66886890  -21.45781802 -16.67819027
| 29> H   28.29214357  -19.56675752 -18.64261123
| 30> H   30.34015915  -19.02404510 -16.43052345
| 31> H   27.09906543  -22.63345786 -16.27567908
| 32> H   29.07855474  -22.33741948 -18.81403082
| 33> C   31.29448178  -21.19347527 -12.40051761
| 34> C   30.39371569  -22.42228272 -12.50769496
| 35> C   29.26394608  -22.13114424 -13.50092444
| 36> C   28.75351151  -20.67135700 -13.41016241
| 37> C   29.26027727  -19.91222208 -12.17678752
| 38> C   28.39133046  -20.25972314 -10.95532268
| 39> O   31.19812107  -23.49128768 -12.94319356
| 40> O   28.25047999  -23.06785350 -13.25688958
| 41> O   29.10034538  -19.95382131 -14.59263821
| 42> O   30.64205173  -20.08164033 -11.87819790
| 43> O   27.10606695  -19.74485072 -11.20942269
| 44> H   32.12325560  -21.40618823 -11.70959584
| 45> H   29.96546517  -22.64450733 -11.52199381
| 46> H   29.68225803  -22.26063333 -14.50997379
| 47> H   27.66201608  -20.69939775 -13.31534469
| 48> H   29.12471781  -18.83897754 -12.36469747
| 49> H   28.35003780  -21.34574618 -10.80599127
| 50> H   28.84446997  -19.79386290 -10.07181512
| 51> H   30.62564236  -24.26024179 -13.05991120
| 52> H   27.54975410  -22.91931063 -13.90845532
| 53> H   26.55004316  -19.88747635 -10.43554424
| 54> C   35.47915572  -19.69744812 -15.24274916
| 55> C   35.32763500  -21.18698166 -14.87996485
| 56> C   33.85939394  -21.60080340 -14.71982807
| 57> C   33.16411490  -20.59008573 -13.79313884
| 58> C   33.32839781  -19.19880544 -14.41175320
| 59> C   32.52284197  -18.09595604 -13.70536624
| 60> O   35.97560495  -21.93430385 -15.87694328
| 61> O   33.84313903  -22.90379026 -14.20779770
| 62> O   31.80103301  -20.93889549 -13.69022394
| 63> O   34.70951768  -18.85361605 -14.44016505
| 64> O   31.30688714  -17.87910584 -14.37089678
| 65> H   36.51960004  -19.40610913 -15.05053791
| 66> H   35.81834236  -21.34246962 -13.90694811
| 67> H   33.36070050  -21.57035095 -15.70368650
| 68> H   33.64828411  -20.60972761 -12.80796400
| 69> H   32.94690024  -19.25611480 -15.43816408
| 70> H   32.36452041  -18.34795422 -12.65242164
| 71> H   33.08691356  -17.16172035 -13.76455765
| 72> H   35.80064725  -22.86626206 -15.68787546
| 73> H   30.70893695  -18.61975248 -14.18243345
| 74> C   36.92139395  -17.36211421 -19.73586956
| 75> C   37.76262656  -18.50451079 -19.12153661
| 76> C   36.83359687  -19.47931346 -18.38393479
| 77> C   36.07080469  -18.66349847 -17.33268239
| 78> C   35.31150863  -17.51287991 -18.02040383
| 79> C   34.60081214  -16.64557290 -16.96830200
| 80> O   38.52078348  -19.16124031 -20.10089205
| 81> O   37.62972699  -20.48069263 -17.81402465
| 82> O   35.17646433  -19.50028772 -16.61007011
| 83> O   36.23384482  -16.69153971 -18.72239246
| 84> H   37.59310741  -16.61427096 -20.18041885
| 85> H   38.43431182  -18.04524390 -18.37871231
| 86> H   36.11108794  -19.91179512 -19.09472351
| 87> H   36.80472745  -18.22165133 -16.64598197
| 88> H   34.59982206  -17.91490604 -18.74930907
| 89> H   38.90565348  -19.93639093 -19.66518314
| 90> H   37.08355974  -21.03646343 -17.23227581
| 91> C   34.28788115  -19.14339773 -23.23381712
| 92> C   35.57353473  -19.94933006 -23.40900565
| 93> C   36.57376529  -19.54121940 -22.32252619
| 94> C   36.52108402  -18.02592927 -22.00552886
| 95> C   35.71414454  -17.20696368 -23.02147126
| 96> C   36.58482482  -16.89096412 -24.25017112
| 97> O   35.22928434  -21.30954259 -23.30594268
| 98> O   37.84181213  -19.95345383 -22.75374641
| 99> O   35.99792578  -17.81620795 -20.69600416
|100> O   34.47025059  -17.77659035 -23.41606084
|101> O   37.60949051  -16.03047056 -23.81321974
|102> H   33.55631538  -19.45226047 -23.99470621
|103> H   36.00104854  -19.73824168 -24.39742059
|104> H   36.28192689  -20.06958376 -21.40289353
|105> H   37.54362982  -17.63403622 -22.05067363
|106> H   35.46686207  -16.24415474 -22.55514628
|107> H   37.00704096  -17.81094389 -24.67289047
|108> H   35.94854182  -16.40997589 -25.00282183
|109> H   36.04456208  -21.82359022 -23.36750597
|110> H   38.47455412  -19.73975139 -22.05265054
|111> H   38.13755168  -15.75802928 -24.57149426
|112> C   29.99139528  -20.04493283 -20.31120803
|113> C   30.65118064  -21.23122212 -21.03931829
|114> C   32.16054725  -21.03277796 -21.22563936
|115> C   32.39979140  -19.63627195 -21.82293302
|116> C   31.77601122  -18.60891542 -20.87373651
|117> C   32.09576531  -17.14741049 -21.22844015
|118> O   30.36295366  -22.39268791 -20.30450515
|119> O   32.62090146  -22.06208686 -22.05554969
|120> O   33.79016069  -19.43262783 -21.94786360
|121> O   30.36630304  -18.80339723 -20.82822860
|122> O   33.18704890  -16.69056341 -20.47436744
|123> H   28.90779584  -20.10799731 -20.47331998
|124> H   30.20401740  -21.29392358 -22.04335165
|125> H   32.66057342  -21.08131015 -20.24315532
|126> H   31.90617749  -19.57233237 -22.80159682
|127> H   32.19994582  -18.79002519 -19.87875137
|128> H   32.27771988  -17.04225330 -22.30220661
|129> H   31.23916538  -16.52750224 -20.95230122
|130> H   30.85143999  -23.11651654 -20.71949696
|131> H   33.50070904  -21.82868019 -22.39915679
|132> H   33.99988038  -17.08987653 -20.82354131
|133> C   31.18945197  -15.43565046 -17.30791119
|134> C   32.55802162  -15.20231451 -17.11606753
|135> N   31.03644692  -16.80141651 -17.50678459
|136> N   33.19306455  -16.43328628 -17.20677442
|137> C   32.25532252  -17.36903539 -17.44628536
|138> H   35.08854575  -15.67064732 -16.98136728
|139> H   34.72822525  -17.08996922 -15.97395172
|140> H   28.98334712  -16.73901877 -17.56661717
|141> H   29.74432996  -17.62342154 -18.90801389
|142> H   32.95621717  -23.10137150 -13.86052884
|143> C   33.04461943  -13.92598359 -16.89033595
|144> C   30.27332497  -14.39788200 -17.28304908
|145> N   32.50179342  -18.67178468 -17.60255703
|146> H   31.76924198  -19.29424951 -17.92125097
|147> C   32.12459180  -12.89331865 -16.86676734
|148> C   30.76547854  -13.12498667 -17.05703564
|149> H   32.46809860  -11.88544785 -16.69716055
|150> H   34.09410171  -13.73103615 -16.74452213
|151> H   30.08064078  -12.29265103 -17.02966796
|152> H   29.21857549  -14.56159302 -17.42931791
|153> H   33.42925447  -19.03908661 -17.42750643
|154> *
|155> 
|156>                          ****END OF INPUT****
================================================================================

                       *****************************
                       * Geometry Optimization Run *
                       *****************************

Geometry optimization settings:
Update method            Update   .... BFGS
Choice of coordinates    CoordSys .... Z-matrix Internals
Initial Hessian          InHess   .... Almoef's Model

Convergence Tolerances:
Energy Change            TolE     ....  5.0000e-06 Eh
Max. Gradient            TolMAXG  ....  3.0000e-04 Eh/bohr
RMS Gradient             TolRMSG  ....  1.0000e-04 Eh/bohr
Max. Displacement        TolMAXD  ....  4.0000e-03 bohr
RMS Displacement         TolRMSD  ....  2.0000e-03 bohr
Strict Convergence                ....  False
------------------------------------------------------------------------------
                        ORCA OPTIMIZATION COORDINATE SETUP
------------------------------------------------------------------------------

The optimization will be done in new redundant internal coordinates
Making redundant internal coordinates   ...  (new redundants) done
Evaluating the initial hessian          ...  (Almloef) done
Evaluating the coordinates              ...  done
Calculating the B-matrix                .... done
Calculating the G-matrix                .... done
Diagonalizing the G-matrix              .... done
Small eigenvalue found = 2.092e-03
Small eigenvalue found = 3.588e-03
Small eigenvalue found = 3.666e-03
Small eigenvalue found = 5.054e-03
Small eigenvalue found = 7.976e-03
Small eigenvalue found = 8.897e-03
Small eigenvalue found = 9.161e-03
Small eigenvalue found = 1.052e-02
Small eigenvalue found = 1.213e-02
Small eigenvalue found = 1.350e-02
Small eigenvalue found = 1.379e-02
Small eigenvalue found = 1.651e-02
Small eigenvalue found = 1.833e-02
Small eigenvalue found = 2.026e-02
Small eigenvalue found = 2.300e-02
Small eigenvalue found = 2.635e-02
Small eigenvalue found = 2.677e-02
Small eigenvalue found = 2.905e-02
Small eigenvalue found = 2.980e-02
The first mode is                       ....  465
The number of degrees of freedom        ....  408

    -----------------------------------------------------------------
                    Redundant Internal Coordinates


    -----------------------------------------------------------------
         Definition                    Initial Value    Approx d2E/dq
    -----------------------------------------------------------------
      1. B(C   1,C   0)                  1.5459         0.352330   
      2. B(C   2,C   1)                  1.5353         0.366405   
      3. B(C   3,C   2)                  1.5336         0.368679   
      4. B(C   4,C   3)                  1.5406         0.359324   
      5. B(C   5,C   4)                  1.5377         0.363212   
      6. B(O   6,C   1)                  1.4017         0.536060   
      7. B(O   7,C   2)                  1.4005         0.538349   
      8. B(O   8,C   3)                  1.4220         0.497493   
      9. B(O   9,C   4)                  1.4209         0.499542   
     10. B(O   9,C   0)                  1.3963         0.546713   
     11. B(H  10,C   0)                  1.0992         0.348156   
     12. B(H  11,C   1)                  1.1017         0.344904   
     13. B(H  12,C   2)                  1.1019         0.344691   
     14. B(H  13,C   3)                  1.0979         0.349737   
     15. B(H  14,C   4)                  1.0949         0.353639   
     16. B(H  15,O   6)                  0.9689         0.503197   
     17. B(H  16,O   7)                  0.9725         0.496706   
     18. B(C  18,C  17)                  1.5274         0.377213   
     19. B(C  19,C  18)                  1.5322         0.370564   
     20. B(C  20,C  19)                  1.5491         0.348241   
     21. B(C  21,C  20)                  1.5344         0.367617   
     22. B(C  22,C  21)                  1.5388         0.361736   
     23. B(O  23,C  18)                  1.4069         0.525821   
     24. B(O  24,C  19)                  1.4015         0.536527   
     25. B(O  25,C  20)                  1.4260         0.490323   
     26. B(O  25,C   0)                  1.4076         0.524557   
     27. B(O  26,C  21)                  1.4238         0.494284   
     28. B(O  26,C  17)                  1.3909         0.557708   
     29. B(O  27,C  22)                  1.4077         0.524407   
     30. B(H  28,C  17)                  1.0998         0.347410   
     31. B(H  29,C  18)                  1.0974         0.350383   
     32. B(H  30,C  19)                  1.1000         0.347150   
     33. B(H  31,C  20)                  1.0960         0.352295   
     34. B(H  32,C  21)                  1.0980         0.349708   
     35. B(H  33,C  22)                  1.0970         0.350933   
     36. B(H  34,C  22)                  1.0968         0.351230   
     37. B(H  35,O  23)                  0.9657         0.509115   
     38. B(H  36,O  24)                  0.9683         0.504327   
     39. B(H  37,O  27)                  0.9635         0.513255   
     40. B(C  39,C  38)                  1.5405         0.359379   
     41. B(C  40,C  39)                  1.5338         0.368360   
     42. B(C  41,C  40)                  1.5374         0.363505   
     43. B(C  42,C  41)                  1.5314         0.371593   
     44. B(C  43,C  42)                  1.5376         0.363304   
     45. B(O  44,C  39)                  1.4044         0.530776   
     46. B(O  45,C  40)                  1.4001         0.539261   
     47. B(O  46,C  41)                  1.4108         0.518501   
     48. B(O  46,C  17)                  1.4088         0.522233   
     49. B(O  47,C  42)                  1.4239         0.494095   
     50. B(O  47,C  38)                  1.3959         0.547599   
     51. B(O  48,C  43)                  1.4030         0.533436   
     52. B(H  49,C  38)                  1.0974         0.350407   
     53. B(H  50,C  39)                  1.1008         0.346109   
     54. B(H  51,C  40)                  1.1034         0.342741   
     55. B(H  51,H  12)                  3.8199         0.000003   
     56. B(H  52,C  41)                  1.0979         0.349805   
     57. B(H  53,C  42)                  1.0965         0.351584   
     58. B(H  54,C  43)                  1.0942         0.354594   
     59. B(H  55,C  43)                  1.0929         0.356256   
     60. B(H  56,O  44)                  0.9669         0.506935   
     61. B(H  57,O  48)                  0.9704         0.500518   
     62. B(H  57,H  14)                  2.3137         0.000769   
     63. B(C  59,C  58)                  1.5460         0.352237   
     64. B(C  60,C  59)                  1.5354         0.366263   
     65. B(C  61,C  60)                  1.5338         0.368398   
     66. B(C  62,C  61)                  1.5406         0.359322   
     67. B(C  63,C  62)                  1.5376         0.363282   
     68. B(O  64,C  59)                  1.4019         0.535725   
     69. B(O  65,C  60)                  1.4005         0.538436   
     70. B(O  66,C  61)                  1.4221         0.497439   
     71. B(O  66,C  38)                  1.4142         0.511929   
     72. B(O  67,C  62)                  1.4206         0.500106   
     73. B(O  67,C  58)                  1.3963         0.546884   
     74. B(H  68,C  58)                  1.0991         0.348219   
     75. B(H  69,C  59)                  1.1018         0.344874   
     76. B(H  70,C  60)                  1.1019         0.344641   
     77. B(H  71,C  61)                  1.0979         0.349773   
     78. B(H  72,C  62)                  1.0952         0.353309   
     79. B(H  73,O  64)                  0.9689         0.503175   
     80. B(H  74,O  65)                  0.9724         0.496755   
     81. B(C  76,C  75)                  1.5275         0.377082   
     82. B(C  77,C  76)                  1.5321         0.370649   
     83. B(C  78,C  77)                  1.5490         0.348403   
     84. B(C  79,C  78)                  1.5343         0.367756   
     85. B(C  80,C  79)                  1.5387         0.361804   
     86. B(O  81,C  76)                  1.4069         0.525952   
     87. B(O  82,C  77)                  1.4014         0.536710   
     88. B(O  83,C  78)                  1.4257         0.490871   
     89. B(O  83,C  58)                  1.4074         0.524893   
     90. B(O  84,C  79)                  1.4239         0.494100   
     91. B(O  84,C  75)                  1.3909         0.557727   
     92. B(O  85,C  80)                  1.4076         0.524576   
     93. B(H  86,C  75)                  1.0998         0.347380   
     94. B(H  87,C  76)                  1.0974         0.350440   
     95. B(H  88,C  77)                  1.1000         0.347075   
     96. B(H  89,C  78)                  1.0960         0.352248   
     97. B(H  90,C  79)                  1.0980         0.349668   
     98. B(H  91,C  80)                  1.0970         0.351010   
     99. B(H  92,C  80)                  1.0967         0.351381   
    100. B(H  93,O  81)                  0.9658         0.509050   
    101. B(H  94,O  82)                  0.9683         0.504378   
    102. B(H  95,O  85)                  0.9634         0.513587   
    103. B(C  96,O   8)                  1.4140         0.512432   
    104. B(C  97,C  96)                  1.5404         0.359609   
    105. B(C  98,C  97)                  1.5337         0.368510   
    106. B(C  99,C  98)                  1.5376         0.363283   
    107. B(C 100,C  99)                  1.5315         0.371502   
    108. B(C 101,C 100)                  1.5375         0.363358   
    109. B(O 102,C  97)                  1.4043         0.530980   
    110. B(O 103,C  98)                  1.4001         0.539304   
    111. B(O 104,C  99)                  1.4107         0.518532   
    112. B(O 104,C  75)                  1.4089         0.522023   
    113. B(O 105,C 100)                  1.4238         0.494276   
    114. B(O 105,C  96)                  1.3962         0.547066   
    115. B(O 106,C 101)                  1.4029         0.533622   
    116. B(H 107,C  96)                  1.0975         0.350350   
    117. B(H 108,C  97)                  1.1009         0.345972   
    118. B(H 109,C  98)                  1.1035         0.342709   
    119. B(H 109,H  70)                  3.8200         0.000003   
    120. B(H 110,C  99)                  1.0980         0.349717   
    121. B(H 111,C 100)                  1.0966         0.351483   
    122. B(H 112,C 101)                  1.0941         0.354666   
    123. B(H 113,C 101)                  1.0928         0.356361   
    124. B(H 114,O 102)                  0.9668         0.507068   
    125. B(H 115,O 103)                  0.9729         0.495823   
    126. B(H 116,O 106)                  0.9706         0.500094   
    127. B(H 116,H  72)                  2.3115         0.000776   
    128. B(C 118,C 117)                  1.4015         0.598927   
    129. B(N 119,C 117)                  1.3886         0.562432   
    130. B(N 119,C   5)                  1.4440         0.458842   
    131. B(N 120,C  63)                  1.4435         0.459750   
    132. B(N 120,C 118)                  1.3881         0.563534   
    133. B(C 121,N 120)                  1.3462         0.657200   
    134. B(C 121,N 119)                  1.3459         0.657957   
    135. B(H 122,C  63)                  1.0902         0.359836   
    136. B(H 123,C  63)                  1.0966         0.351519   
    137. B(H 124,C   5)                  1.0905         0.359487   
    138. B(H 125,C   5)                  1.0967         0.351331   
    139. B(H 126,O  45)                  0.9728         0.496143   
    140. B(C 127,C 118)                  1.3845         0.637623   
    141. B(C 128,C 117)                  1.3845         0.637524   
    142. B(N 129,C 121)                  1.3350         0.684802   
    143. B(H 130,H 111)                  2.0668         0.001906   
    144. B(H 130,N 129)                  1.0127         0.428361   
    145. B(C 131,C 127)                  1.3833         0.640464   
    146. B(C 132,C 131)                  1.3918         0.620717   
    147. B(C 132,C 128)                  1.3833         0.640331   
    148. B(H 133,C 131)                  1.0782         0.376020   
    149. B(H 134,C 127)                  1.0773         0.377232   
    150. B(H 135,C 132)                  1.0782         0.376041   
    151. B(H 136,C 128)                  1.0774         0.377223   
    152. B(H 137,H  53)                  2.0585         0.001965   
    153. B(H 137,N 129)                  1.0128         0.428300   
    154. A(C   1,C   0,H  10)          109.3475         0.319455   
    155. A(C   1,C   0,O   9)          109.5071         0.381682   
    156. A(O   9,C   0,H  10)          105.4916         0.341455   
    157. A(H  10,C   0,O  25)          110.1529         0.339103   
    158. A(C   1,C   0,O  25)          112.9000         0.378954   
    159. A(O   9,C   0,O  25)          109.1735         0.406635   
    160. A(O   6,C   1,H  11)          109.6613         0.339800   
    161. A(C   0,C   1,O   6)          111.3316         0.380381   
    162. A(C   0,C   1,H  11)          106.9458         0.318966   
    163. A(C   0,C   1,C   2)          109.2323         0.358555   
    164. A(C   2,C   1,O   6)          111.4561         0.382976   
    165. A(C   2,C   1,H  11)          108.0576         0.321014   
    166. A(O   7,C   2,H  12)          110.7768         0.340007   
    167. A(C   1,C   2,O   7)          107.8025         0.383260   
    168. A(C   3,C   2,H  12)          108.9889         0.321306   
    169. A(C   1,C   2,C   3)          106.9535         0.361336   
    170. A(C   1,C   2,H  12)          109.6529         0.320981   
    171. A(C   3,C   2,O   7)          112.5624         0.383672   
    172. A(C   2,C   3,O   8)          110.3541         0.378455   
    173. A(C   4,C   3,O   8)          110.8847         0.376776   
    174. A(O   8,C   3,H  13)          109.8286         0.336375   
    175. A(C   2,C   3,H  13)          107.9939         0.322072   
    176. A(C   4,C   3,H  13)          107.9008         0.320720   
    177. A(C   2,C   3,C   4)          109.8001         0.360136   
    178. A(C   3,C   4,O   9)          109.4260         0.377044   
    179. A(C   3,C   4,H  14)          110.1838         0.321302   
    180. A(C   5,C   4,H  14)          111.3176         0.321869   
    181. A(C   5,C   4,O   9)          108.1430         0.377746   
    182. A(C   3,C   4,C   5)          109.9993         0.359221   
    183. A(O   9,C   4,H  14)          107.7032         0.337228   
    184. A(C   4,C   5,H 125)          109.7885         0.321524   
    185. A(H 124,C   5,H 125)          108.7472         0.289639   
    186. A(N 119,C   5,H 124)          107.5251         0.333405   
    187. A(N 119,C   5,H 125)          108.7990         0.332138   
    188. A(C   4,C   5,H 124)          106.6846         0.322735   
    189. A(C   4,C   5,N 119)          115.1047         0.372245   
    190. A(C   1,O   6,H  15)          105.9943         0.359001   
    191. A(C   2,O   7,H  16)          109.4276         0.358469   
    192. A(C   3,O   8,C  96)          116.0174         0.398283   
    193. A(C   0,O   9,C   4)          113.6926         0.403141   
    194. A(O  26,C  17,O  46)          111.5912         0.407749   
    195. A(H  28,C  17,O  46)          109.8234         0.338730   
    196. A(C  18,C  17,O  46)          107.0493         0.383172   
    197. A(O  26,C  17,H  28)          105.7935         0.342473   
    198. A(C  18,C  17,O  26)          113.1302         0.387580   
    199. A(C  18,C  17,H  28)          109.4454         0.322928   
    200. A(C  17,C  18,H  29)          109.2700         0.323380   
    201. A(O  23,C  18,H  29)          110.3203         0.339600   
    202. A(C  17,C  18,C  19)          109.1153         0.363451   
    203. A(C  19,C  18,H  29)          109.4494         0.322438   
    204. A(C  19,C  18,O  23)          111.4256         0.382444   
    205. A(C  17,C  18,O  23)          107.2068         0.383628   
    206. A(C  18,C  19,C  20)          112.5837         0.358531   
    207. A(O  24,C  19,H  30)          110.8586         0.340218   
    208. A(C  18,C  19,H  30)          106.9703         0.321949   
    209. A(C  20,C  19,H  30)          106.8571         0.318696   
    210. A(C  20,C  19,O  24)          112.4179         0.379669   
    211. A(C  18,C  19,O  24)          107.0578         0.383786   
    212. A(C  21,C  20,H  31)          105.7859         0.322304   
    213. A(C  19,C  20,H  31)          108.0059         0.319462   
    214. A(O  25,C  20,H  31)          109.0777         0.335971   
    215. A(C  21,C  20,O  25)          109.7114         0.377317   
    216. A(C  19,C  20,O  25)          110.2090         0.373805   
    217. A(C  19,C  20,C  21)          113.8593         0.358044   
    218. A(O  26,C  21,H  32)          105.7847         0.336009   
    219. A(C  22,C  21,H  32)          106.6711         0.321067   
    220. A(C  22,C  21,O  26)          110.7750         0.376790   
    221. A(C  20,C  21,H  32)          107.7740         0.321915   
    222. A(C  20,C  21,O  26)          115.4824         0.377842   
    223. A(C  20,C  21,C  22)          109.8670         0.360370   
    224. A(C  21,C  22,H  33)          110.6635         0.321250   
    225. A(C  21,C  22,O  27)          106.8404         0.380669   
    226. A(C  21,C  22,H  34)          108.0715         0.321295   
    227. A(H  33,C  22,H  34)          109.0497         0.288535   
    228. A(O  27,C  22,H  34)          111.5476         0.339584   
    229. A(O  27,C  22,H  33)          110.6279         0.339537   
    230. A(C  18,O  23,H  35)          107.6664         0.358538   
    231. A(C  19,O  24,H  36)          107.6747         0.359192   
    232. A(C   0,O  25,C  20)          115.6233         0.398904   
    233. A(C  17,O  26,C  21)          118.1374         0.403805   
    234. A(C  22,O  27,H  37)          109.1331         0.358867   
    235. A(O  47,C  38,O  66)          110.7078         0.405004   
    236. A(C  39,C  38,O  66)          109.9636         0.378655   
    237. A(H  49,C  38,O  66)          109.5874         0.338090   
    238. A(O  47,C  38,H  49)          105.1617         0.341917   
    239. A(C  39,C  38,H  49)          107.9801         0.320828   
    240. A(C  39,C  38,O  47)          113.2575         0.383105   
    241. A(O  44,C  39,H  50)          110.2831         0.339436   
    242. A(C  40,C  39,H  50)          107.2369         0.321477   
    243. A(C  38,C  39,H  50)          107.5109         0.320182   
    244. A(C  40,C  39,O  44)          111.8518         0.382671   
    245. A(C  38,C  39,O  44)          107.5751         0.381035   
    246. A(C  38,C  39,C  40)          112.3088         0.360092   
    247. A(O  45,C  40,H  51)          110.2744         0.339781   
    248. A(C  41,C  40,H  51)          108.3547         0.320267   
    249. A(C  39,C  40,H  51)          109.3952         0.320963   
    250. A(C  41,C  40,O  45)          112.7139         0.382843   
    251. A(C  39,C  40,O  45)          107.4806         0.383727   
    252. A(C  39,C  40,C  41)          108.5697         0.360794   
    253. A(O  46,C  41,H  52)          110.8676         0.338713   
    254. A(C  42,C  41,H  52)          109.3546         0.322498   
    255. A(C  40,C  41,H  52)          109.2488         0.321338   
    256. A(C  42,C  41,O  46)          110.9611         0.381698   
    257. A(C  40,C  41,O  46)          108.5647         0.380244   
    258. A(C  40,C  41,C  42)          107.7730         0.361332   
    259. A(O  47,C  42,H  53)          109.3575         0.336287   
    260. A(C  43,C  42,H  53)          106.5738         0.321575   
    261. A(C  41,C  42,H  53)          107.0563         0.322766   
    262. A(C  43,C  42,O  47)          110.0876         0.377047   
    263. A(C  41,C  42,O  47)          109.4115         0.378521   
    264. A(C  41,C  42,C  43)          114.1944         0.361298   
    265. A(H  54,C  43,H  55)          108.8845         0.289649   
    266. A(O  48,C  43,H  55)          106.8273         0.341365   
    267. A(C  42,C  43,H  55)          108.5323         0.322271   
    268. A(O  48,C  43,H  54)          111.5101         0.341098   
    269. A(C  42,C  43,H  54)          110.6532         0.322025   
    270. A(C  42,C  43,O  48)          110.3031         0.382085   
    271. A(C  39,O  44,H  56)          106.8939         0.358848   
    272. A(C  40,O  45,H 126)          109.2792         0.358503   
    273. A(C  17,O  46,C  41)          117.3141         0.402533   
    274. A(C  38,O  47,C  42)          113.5606         0.402478   
    275. A(C  43,O  48,H  57)          108.9018         0.358376   
    276. A(C  59,C  58,O  67)          109.5359         0.381685   
    277. A(H  68,C  58,O  83)          110.1570         0.339149   
    278. A(O  67,C  58,O  83)          109.0884         0.406703   
    279. A(C  59,C  58,O  83)          112.9356         0.378979   
    280. A(O  67,C  58,H  68)          105.5298         0.341484   
    281. A(C  59,C  58,H  68)          109.3262         0.319450   
    282. A(C  60,C  59,O  64)          111.4338         0.382909   
    283. A(C  58,C  59,O  64)          111.2747         0.380322   
    284. A(C  58,C  59,C  60)          109.3171         0.358515   
    285. A(O  64,C  59,H  69)          109.6689         0.339760   
    286. A(C  60,C  59,H  69)          108.0378         0.320989   
    287. A(C  58,C  59,H  69)          106.9548         0.318947   
    288. A(C  61,C  60,O  65)          112.5887         0.383632   
    289. A(C  59,C  60,O  65)          107.7875         0.383245   
    290. A(C  59,C  60,C  61)          107.0071         0.361266   
    291. A(O  65,C  60,H  70)          110.7680         0.340008   
    292. A(C  61,C  60,H  70)          108.9519         0.321259   
    293. A(C  59,C  60,H  70)          109.6354         0.320953   
    294. A(C  62,C  61,O  66)          110.8768         0.376768   
    295. A(C  60,C  61,C  62)          109.6580         0.360089   
    296. A(C  60,C  61,O  66)          110.3690         0.378398   
    297. A(O  66,C  61,H  71)          109.8398         0.336375   
    298. A(C  62,C  61,H  71)          107.9445         0.320725   
    299. A(C  60,C  61,H  71)          108.0769         0.322037   
    300. A(C  61,C  62,O  67)          109.4151         0.377117   
    301. A(C  61,C  62,C  63)          110.0987         0.359232   
    302. A(O  67,C  62,H  72)          107.7740         0.337239   
    303. A(C  63,C  62,H  72)          111.2295         0.321830   
    304. A(C  61,C  62,H  72)          110.0730         0.321253   
    305. A(C  63,C  62,O  67)          108.1854         0.377833   
    306. A(N 120,C  63,H 123)          108.8275         0.332277   
    307. A(C  62,C  63,H 123)          109.7652         0.321563   
    308. A(N 120,C  63,H 122)          107.6262         0.333568   
    309. A(C  62,C  63,H 122)          106.8243         0.322797   
    310. A(C  62,C  63,N 120)          114.8772         0.372384   
    311. A(H 122,C  63,H 123)          108.7413         0.289707   
    312. A(C  59,O  64,H  73)          105.9886         0.358960   
    313. A(C  60,O  65,H  74)          109.4401         0.358485   
    314. A(C  38,O  66,C  61)          116.0222         0.398207   
    315. A(C  58,O  67,C  62)          113.6231         0.403244   
    316. A(H  86,C  75,O 104)          109.8055         0.338702   
    317. A(O  84,C  75,O 104)          111.5698         0.407723   
    318. A(C  76,C  75,O 104)          107.0801         0.383122   
    319. A(O  84,C  75,H  86)          105.8153         0.342470   
    320. A(C  76,C  75,H  86)          109.4118         0.322905   
    321. A(C  76,C  75,O  84)          113.1475         0.387559   
    322. A(O  81,C  76,H  87)          110.3209         0.339624   
    323. A(C  77,C  76,H  87)          109.4595         0.322459   
    324. A(C  75,C  76,H  87)          109.2512         0.323370   
    325. A(C  77,C  76,O  81)          111.4276         0.382476   
    326. A(C  75,C  76,O  81)          107.2038         0.383621   
    327. A(C  75,C  76,C  77)          109.1239         0.363444   
    328. A(O  82,C  77,H  88)          110.8559         0.340226   
    329. A(C  78,C  77,H  88)          106.8435         0.318709   
    330. A(C  76,C  77,H  88)          106.9596         0.321950   
    331. A(C  78,C  77,O  82)          112.4275         0.379723   
    332. A(C  76,C  77,O  82)          107.1072         0.383824   
    333. A(C  76,C  77,C  78)          112.5500         0.358574   
    334. A(O  83,C  78,H  89)          109.1230         0.336026   
    335. A(C  79,C  78,H  89)          105.8164         0.322317   
    336. A(C  77,C  78,H  89)          108.0368         0.319480   
    337. A(C  79,C  78,O  83)          109.6761         0.377415   
    338. A(C  77,C  78,O  83)          110.1427         0.373907   
    339. A(C  77,C  78,C  79)          113.8626         0.358096   
    340. A(O  84,C  79,H  90)          105.7682         0.335981   
    341. A(C  80,C  79,H  90)          106.6480         0.321071   
    342. A(C  78,C  79,H  90)          107.7752         0.321929   
    343. A(C  80,C  79,O  84)          110.8051         0.376778   
    344. A(C  78,C  79,O  84)          115.4307         0.377843   
    345. A(C  78,C  79,C  80)          109.9238         0.360405   
    346. A(H  91,C  80,H  92)          109.0669         0.288565   
    347. A(O  85,C  80,H  92)          111.5481         0.339627   
    348. A(C  79,C  80,H  92)          108.0471         0.321327   
    349. A(O  85,C  80,H  91)          110.6177         0.339567   
    350. A(C  79,C  80,H  91)          110.6878         0.321272   
    351. A(C  79,C  80,O  85)          106.8326         0.380703   
    352. A(C  76,O  81,H  93)          107.6607         0.358545   
    353. A(C  77,O  82,H  94)          107.6724         0.359219   
    354. A(C  58,O  83,C  78)          115.6773         0.399028   
    355. A(C  75,O  84,C  79)          118.1219         0.403781   
    356. A(C  80,O  85,H  95)          109.1215         0.358927   
    357. A(O 105,C  96,H 107)          105.1609         0.341852   
    358. A(C  97,C  96,H 107)          107.9892         0.320853   
    359. A(O   8,C  96,H 107)          109.5990         0.338136   
    360. A(C  97,C  96,O 105)          113.2521         0.383083   
    361. A(O   8,C  96,O 105)          110.7108         0.405004   
    362. A(O   8,C  96,C  97)          109.9478         0.378761   
    363. A(O 102,C  97,H 108)          110.2887         0.339436   
    364. A(C  98,C  97,H 108)          107.2360         0.321477   
    365. A(C  96,C  97,H 108)          107.5165         0.320194   
    366. A(C  98,C  97,O 102)          111.8743         0.382724   
    367. A(C  96,C  97,O 102)          107.5605         0.381103   
    368. A(C  96,C  97,C  98)          112.2907         0.360157   
    369. A(O 103,C  98,H 109)          110.2700         0.339780   
    370. A(C  99,C  98,H 109)          108.3792         0.320230   
    371. A(C  97,C  98,H 109)          109.3957         0.320979   
    372. A(C  99,C  98,O 103)          112.7244         0.382808   
    373. A(C  97,C  98,O 103)          107.4863         0.383760   
    374. A(C  97,C  98,C  99)          108.5318         0.360781   
    375. A(O 104,C  99,H 110)          110.8387         0.338702   
    376. A(C 100,C  99,H 110)          109.2846         0.322471   
    377. A(C  98,C  99,H 110)          109.2195         0.321292   
    378. A(C 100,C  99,O 104)          111.0674         0.381686   
    379. A(C  98,C  99,O 104)          108.5936         0.380208   
    380. A(C  98,C  99,C 100)          107.7656         0.361279   
    381. A(O 105,C 100,H 111)          109.3422         0.336291   
    382. A(C 101,C 100,H 111)          106.6133         0.321568   
    383. A(C  99,C 100,H 111)          107.1037         0.322738   
    384. A(C 101,C 100,O 105)          110.0671         0.377081   
    385. A(C  99,C 100,O 105)          109.3568         0.378529   
    386. A(C  99,C 100,C 101)          114.2019         0.361292   
    387. A(H 112,C 101,H 113)          108.8933         0.289671   
    388. A(O 106,C 101,H 113)          106.8086         0.341402   
    389. A(C 100,C 101,H 113)          108.5354         0.322295   
    390. A(O 106,C 101,H 112)          111.5205         0.341129   
    391. A(C 100,C 101,H 112)          110.6305         0.322043   
    392. A(C 100,C 101,O 106)          110.3222         0.382118   
    393. A(C  97,O 102,H 114)          106.9122         0.358888   
    394. A(C  98,O 103,H 115)          109.2877         0.358468   
    395. A(C  75,O 104,C  99)          117.2982         0.402509   
    396. A(C  96,O 105,C 100)          113.5266         0.402435   
    397. A(C 101,O 106,H 116)          108.9100         0.358345   
    398. A(C 118,C 117,N 119)          106.9147         0.421151   
    399. A(N 119,C 117,C 128)          131.8267         0.425879   
    400. A(C 118,C 117,C 128)          121.2581         0.433542   
    401. A(N 120,C 118,C 127)          131.8669         0.426041   
    402. A(C 117,C 118,C 127)          121.2659         0.433555   
    403. A(C 117,C 118,N 120)          106.8671         0.421298   
    404. A(C 117,N 119,C 121)          107.9730         0.425502   
    405. A(C   5,N 119,C 121)          127.7762         0.410349   
    406. A(C   5,N 119,C 117)          124.0703         0.399140   
    407. A(C 118,N 120,C 121)          108.0206         0.425563   
    408. A(C  63,N 120,C 121)          127.3357         0.410410   
    409. A(C  63,N 120,C 118)          124.4568         0.399416   
    410. A(N 119,C 121,N 120)          110.2228         0.437573   
    411. A(N 120,C 121,N 129)          124.7852         0.440743   
    412. A(N 119,C 121,N 129)          124.9919         0.440834   
    413. A(C 131,C 127,H 134)          120.6984         0.357667   
    414. A(C 118,C 127,H 134)          122.0908         0.357397   
    415. A(C 118,C 127,C 131)          117.2095         0.438824   
    416. A(C 132,C 128,H 136)          120.6853         0.357653   
    417. A(C 117,C 128,H 136)          122.1052         0.357386   
    418. A(C 117,C 128,C 132)          117.2092         0.438795   
    419. A(H 130,N 129,H 137)          119.5957         0.302273   
    420. A(C 121,N 129,H 137)          120.1805         0.364167   
    421. A(C 121,N 129,H 130)          120.2027         0.364175   
    422. A(C 132,C 131,H 133)          119.2227         0.355575   
    423. A(C 127,C 131,H 133)          119.2498         0.357472   
    424. A(C 127,C 131,C 132)          121.5276         0.436702   
    425. A(C 131,C 132,H 135)          119.2280         0.355579   
    426. A(C 128,C 132,H 135)          119.2428         0.357462   
    427. A(C 128,C 132,C 131)          121.5290         0.436686   
    428. D(H  11,C   1,C   0,H  10)     58.0970         0.009991   
    429. D(H  11,C   1,C   0,O   9)    -57.0354         0.009991   
    430. D(H  11,C   1,C   0,O  25)   -178.8981         0.009991   
    431. D(O   6,C   1,C   0,O   9)   -176.8101         0.009991   
    432. D(O   6,C   1,C   0,H  10)    -61.6776         0.009991   
    433. D(C   2,C   1,C   0,O   9)     59.6758         0.009991   
    434. D(C   2,C   1,C   0,H  10)    174.8083         0.009991   
    435. D(O   6,C   1,C   0,O  25)     61.3273         0.009991   
    436. D(C   2,C   1,C   0,O  25)    -62.1868         0.009991   
    437. D(C   3,C   2,C   1,O   6)    179.1254         0.010745   
    438. D(O   7,C   2,C   1,H  11)    -62.7080         0.010745   
    439. D(O   7,C   2,C   1,O   6)     57.8479         0.010745   
    440. D(C   3,C   2,C   1,C   0)    -57.4342         0.010745   
    441. D(C   3,C   2,C   1,H  11)     58.5694         0.010745   
    442. D(H  12,C   2,C   1,H  11)    176.6087         0.010745   
    443. D(H  12,C   2,C   1,O   6)    -62.8354         0.010745   
    444. D(H  12,C   2,C   1,C   0)     60.6050         0.010745   
    445. D(O   7,C   2,C   1,C   0)   -178.7117         0.010745   
    446. D(H  13,C   3,C   2,O   7)     57.9006         0.010871   
    447. D(O   8,C   3,C   2,O   7)    -62.1590         0.010871   
    448. D(H  13,C   3,C   2,H  12)   -178.7865         0.010871   
    449. D(O   8,C   3,C   2,C   1)    179.6262         0.010871   
    450. D(C   4,C   3,C   2,H  12)    -61.3723         0.010871   
    451. D(H  13,C   3,C   2,C   1)    -60.3141         0.010871   
    452. D(C   4,C   3,C   2,C   1)     57.1001         0.010871   
    453. D(O   8,C   3,C   2,H  12)     61.1539         0.010871   
    454. D(C   4,C   3,C   2,O   7)    175.3148         0.010871   
    455. D(C   5,C   4,C   3,O   8)     61.0464         0.010361   
    456. D(C   5,C   4,C   3,C   2)   -176.7424         0.010361   
    457. D(C   5,C   4,C   3,H  13)    -59.2701         0.010361   
    458. D(O   9,C   4,C   3,C   2)    -58.0746         0.010361   
    459. D(O   9,C   4,C   3,H  13)     59.3977         0.010361   
    460. D(H  14,C   4,C   3,H  13)    177.6388         0.010361   
    461. D(H  14,C   4,C   3,O   8)    -62.0447         0.010361   
    462. D(O   9,C   4,C   3,O   8)    179.7142         0.010361   
    463. D(H  14,C   4,C   3,C   2)     60.1665         0.010361   
    464. D(H 125,C   5,C   4,O   9)   -122.6733         0.010571   
    465. D(H 124,C   5,C   4,O   9)     -5.0011         0.010571   
    466. D(N 119,C   5,C   4,H  14)     -3.9428         0.010571   
    467. D(H 124,C   5,C   4,C   3)    114.4521         0.010571   
    468. D(H 125,C   5,C   4,C   3)     -3.2201         0.010571   
    469. D(H 124,C   5,C   4,H  14)   -123.1245         0.010571   
    470. D(N 119,C   5,C   4,O   9)    114.1807         0.010571   
    471. D(H 125,C   5,C   4,H  14)    119.2033         0.010571   
    472. D(N 119,C   5,C   4,C   3)   -126.3662         0.010571   
    473. D(H  15,O   6,C   1,H  11)     70.4122         0.022844   
    474. D(H  15,O   6,C   1,C   2)    -49.1981         0.022844   
    475. D(H  15,O   6,C   1,C   0)   -171.4364         0.022844   
    476. D(H  16,O   7,C   2,C   1)    171.4776         0.023049   
    477. D(H  16,O   7,C   2,H  12)    -68.5466         0.023049   
    478. D(H  16,O   7,C   2,C   3)     53.7634         0.023049   
    479. D(C  96,O   8,C   3,C   2)    113.2300         0.019561   
    480. D(C  96,O   8,C   3,H  13)     -5.7188         0.019561   
    481. D(C  96,O   8,C   3,C   4)   -124.8822         0.019561   
    482. D(C   0,O   9,C   4,C   3)     61.3433         0.019727   
    483. D(C   4,O   9,C   0,H  10)   -179.6920         0.023808   
    484. D(C   0,O   9,C   4,C   5)   -178.8425         0.019727   
    485. D(C   0,O   9,C   4,H  14)    -58.4334         0.019727   
    486. D(C   4,O   9,C   0,C   1)    -62.1168         0.023808   
    487. D(C   4,O   9,C   0,O  25)     61.9560         0.023808   
    488. D(C  19,C  18,C  17,H  28)   -178.4621         0.011349   
    489. D(C  19,C  18,C  17,O  46)    -59.4866         0.011349   
    490. D(C  19,C  18,C  17,O  26)     63.8489         0.011349   
    491. D(H  29,C  18,C  17,O  26)    -55.7872         0.011349   
    492. D(O  23,C  18,C  17,O  46)     61.3142         0.011349   
    493. D(O  23,C  18,C  17,H  28)    -57.6614         0.011349   
    494. D(H  29,C  18,C  17,O  46)   -179.1227         0.011349   
    495. D(H  29,C  18,C  17,H  28)     61.9018         0.011349   
    496. D(O  23,C  18,C  17,O  26)   -175.3504         0.011349   
    497. D(H  30,C  19,C  18,H  29)   -160.7230         0.010975   
    498. D(H  30,C  19,C  18,O  23)    -38.4336         0.010975   
    499. D(O  24,C  19,C  18,H  29)    -41.8389         0.010975   
    500. D(O  24,C  19,C  18,O  23)     80.4505         0.010975   
    501. D(H  30,C  19,C  18,C  17)     79.7520         0.010975   
    502. D(O  24,C  19,C  18,C  17)   -161.3639         0.010975   
    503. D(C  20,C  19,C  18,H  29)     82.1932         0.010975   
    504. D(C  20,C  19,C  18,O  23)   -155.5175         0.010975   
    505. D(C  20,C  19,C  18,C  17)    -37.3318         0.010975   
    506. D(H  31,C  20,C  19,O  24)     -8.1606         0.009779   
    507. D(H  31,C  20,C  19,C  18)   -129.1751         0.009779   
    508. D(O  25,C  20,C  19,H  30)     -5.3960         0.009779   
    509. D(O  25,C  20,C  19,O  24)   -127.2304         0.009779   
    510. D(O  25,C  20,C  19,C  18)    111.7551         0.009779   
    511. D(C  21,C  20,C  19,H  30)   -129.1620         0.009779   
    512. D(C  21,C  20,C  19,O  24)    109.0036         0.009779   
    513. D(H  31,C  20,C  19,H  30)    113.6738         0.009779   
    514. D(C  21,C  20,C  19,C  18)    -12.0109         0.009779   
    515. D(H  32,C  21,C  20,O  25)     37.9709         0.010812   
    516. D(H  32,C  21,C  20,H  31)    -79.5511         0.010812   
    517. D(H  32,C  21,C  20,C  19)    162.0059         0.010812   
    518. D(O  26,C  21,C  20,O  25)    -80.0130         0.010812   
    519. D(O  26,C  21,C  20,H  31)    162.4650         0.010812   
    520. D(O  26,C  21,C  20,C  19)     44.0219         0.010812   
    521. D(C  22,C  21,C  20,H  31)     36.3077         0.010812   
    522. D(C  22,C  21,C  20,O  25)    153.8297         0.010812   
    523. D(C  22,C  21,C  20,C  19)    -82.1354         0.010812   
    524. D(H  34,C  22,C  21,H  32)    -69.7440         0.010491   
    525. D(H  34,C  22,C  21,C  20)    173.7026         0.010491   
    526. D(H  33,C  22,C  21,C  20)     54.3626         0.010491   
    527. D(H  33,C  22,C  21,H  32)    170.9160         0.010491   
    528. D(O  27,C  22,C  21,H  32)     50.4155         0.010491   
    529. D(O  27,C  22,C  21,O  26)    165.0806         0.010491   
    530. D(H  33,C  22,C  21,O  26)    -74.4189         0.010491   
    531. D(H  34,C  22,C  21,O  26)     44.9211         0.010491   
    532. D(O  27,C  22,C  21,C  20)    -66.1379         0.010491   
    533. D(H  35,O  23,C  18,H  29)     64.1650         0.021941   
    534. D(H  35,O  23,C  18,C  17)   -176.9475         0.021941   
    535. D(H  35,O  23,C  18,C  19)    -57.6209         0.021941   
    536. D(H  36,O  24,C  19,H  30)    -60.9659         0.022886   
    537. D(H  36,O  24,C  19,C  20)     58.5645         0.022886   
    538. D(H  36,O  24,C  19,C  18)   -177.3019         0.022886   
    539. D(C   0,O  25,C  20,H  31)     -8.8943         0.018985   
    540. D(C   0,O  25,C  20,C  21)   -124.3414         0.018985   
    541. D(C   0,O  25,C  20,C  19)    109.5201         0.018985   
    542. D(C  20,O  25,C   0,H  10)     40.4454         0.021831   
    543. D(C  20,O  25,C   0,O   9)    155.8392         0.021831   
    544. D(C  20,O  25,C   0,C   1)    -82.1105         0.021831   
    545. D(C  17,O  26,C  21,H  32)   -139.6517         0.019302   
    546. D(C  17,O  26,C  21,C  22)    105.1286         0.019302   
    547. D(C  17,O  26,C  21,C  20)    -20.5646         0.019302   
    548. D(C  21,O  26,C  17,O  46)     87.3386         0.024829   
    549. D(C  21,O  26,C  17,H  28)   -153.2578         0.024829   
    550. D(C  21,O  26,C  17,C  18)    -33.4540         0.024829   
    551. D(H  37,O  27,C  22,H  34)    -57.9680         0.021818   
    552. D(H  37,O  27,C  22,H  33)     63.6057         0.021818   
    553. D(H  37,O  27,C  22,C  21)   -175.8711         0.021818   
    554. D(C  40,C  39,C  38,O  47)     47.4661         0.010364   
    555. D(H  50,C  39,C  38,H  49)     45.7611         0.010364   
    556. D(H  50,C  39,C  38,O  47)    -70.2646         0.010364   
    557. D(O  44,C  39,C  38,O  66)     46.5249         0.010364   
    558. D(O  44,C  39,C  38,H  49)    -73.0051         0.010364   
    559. D(O  44,C  39,C  38,O  47)    170.9692         0.010364   
    560. D(C  40,C  39,C  38,O  66)    -76.9782         0.010364   
    561. D(H  50,C  39,C  38,O  66)    165.2911         0.010364   
    562. D(C  40,C  39,C  38,H  49)    163.4919         0.010364   
    563. D(H  51,C  40,C  39,H  50)   -173.4962         0.010853   
    564. D(H  51,C  40,C  39,O  44)    -52.4668         0.010853   
    565. D(H  51,C  40,C  39,C  38)     68.6106         0.010853   
    566. D(O  45,C  40,C  39,O  44)     67.2706         0.010853   
    567. D(O  45,C  40,C  39,C  38)   -171.6521         0.010853   
    568. D(C  41,C  40,C  39,H  50)     68.4400         0.010853   
    569. D(O  45,C  40,C  39,H  50)    -53.7588         0.010853   
    570. D(C  41,C  40,C  39,O  44)   -170.5306         0.010853   
    571. D(C  41,C  40,C  39,C  38)    -49.4532         0.010853   
    572. D(H  52,C  41,C  40,H  51)    179.8937         0.010587   
    573. D(H  52,C  41,C  40,O  45)     57.5724         0.010587   
    574. D(H  52,C  41,C  40,C  39)    -61.3844         0.010587   
    575. D(O  46,C  41,C  40,H  51)     58.8769         0.010587   
    576. D(O  46,C  41,C  40,O  45)    -63.4444         0.010587   
    577. D(O  46,C  41,C  40,C  39)    177.5988         0.010587   
    578. D(C  42,C  41,C  40,H  51)    -61.3841         0.010587   
    579. D(C  42,C  41,C  40,O  45)    176.2946         0.010587   
    580. D(C  42,C  41,C  40,C  39)     57.3378         0.010587   
    581. D(H  53,C  42,C  41,H  52)    172.9920         0.011033   
    582. D(H  53,C  42,C  41,O  46)    -64.4015         0.011033   
    583. D(H  53,C  42,C  41,C  40)     54.3375         0.011033   
    584. D(O  47,C  42,C  41,H  52)     54.5858         0.011033   
    585. D(O  47,C  42,C  41,O  46)    177.1923         0.011033   
    586. D(O  47,C  42,C  41,C  40)    -64.0686         0.011033   
    587. D(C  43,C  42,C  41,H  52)    -69.3006         0.011033   
    588. D(C  43,C  42,C  41,O  46)     53.3058         0.011033   
    589. D(C  43,C  42,C  41,C  40)    172.0449         0.011033   
    590. D(H  55,C  43,C  42,O  47)     23.2612         0.010576   
    591. D(H  55,C  43,C  42,C  41)    146.7838         0.010576   
    592. D(H  54,C  43,C  42,H  53)    145.3500         0.010576   
    593. D(H  55,C  43,C  42,H  53)    -95.2329         0.010576   
    594. D(H  54,C  43,C  42,O  47)    -96.1560         0.010576   
    595. D(H  54,C  43,C  42,C  41)     27.3666         0.010576   
    596. D(O  48,C  43,C  42,H  53)     21.4833         0.010576   
    597. D(O  48,C  43,C  42,O  47)    139.9773         0.010576   
    598. D(O  48,C  43,C  42,C  41)    -96.5001         0.010576   
    599. D(H  56,O  44,C  39,H  50)     68.4913         0.022375   
    600. D(H  56,O  44,C  39,C  40)    -50.7557         0.022375   
    601. D(H  56,O  44,C  39,C  38)   -174.5374         0.022375   
    602. D(H 126,O  45,C  40,H  51)    -76.7753         0.023131   
    603. D(H 126,O  45,C  40,C  41)     44.4599         0.023131   
    604. D(H 126,O  45,C  40,C  39)    164.0489         0.023131   
    605. D(C  17,O  46,C  41,H  52)      2.2408         0.021310   
    606. D(C  17,O  46,C  41,C  42)   -119.4848         0.021310   
    607. D(C  17,O  46,C  41,C  40)    122.2547         0.021310   
    608. D(C  41,O  46,C  17,H  28)    -19.0492         0.021630   
    609. D(C  41,O  46,C  17,O  26)     97.9391         0.021630   
    610. D(C  41,O  46,C  17,C  18)   -137.7800         0.021630   
    611. D(C  38,O  47,C  42,H  53)    -53.8254         0.019286   
    612. D(C  38,O  47,C  42,C  43)   -170.5950         0.019286   
    613. D(C  38,O  47,C  42,C  41)     63.1381         0.019286   
    614. D(C  42,O  47,C  38,O  66)     69.8149         0.023889   
    615. D(C  42,O  47,C  38,H  49)   -171.9065         0.023889   
    616. D(C  42,O  47,C  38,C  39)    -54.2242         0.023889   
    617. D(H  57,O  48,C  43,H  55)   -168.4452         0.022611   
    618. D(H  57,O  48,C  43,H  54)    -49.5867         0.022611   
    619. D(H  57,O  48,C  43,C  42)     73.7831         0.022611   
    620. D(H  69,C  59,C  58,O  83)   -179.1074         0.009986   
    621. D(H  69,C  59,C  58,H  68)     57.8733         0.009986   
    622. D(H  69,C  59,C  58,O  67)    -57.3090         0.009986   
    623. D(O  64,C  59,C  58,O  83)     61.1358         0.009986   
    624. D(O  64,C  59,C  58,H  68)    -61.8835         0.009986   
    625. D(O  64,C  59,C  58,O  67)   -177.0657         0.009986   
    626. D(C  60,C  59,C  58,O  83)    -62.3707         0.009986   
    627. D(C  60,C  59,C  58,H  68)    174.6100         0.009986   
    628. D(C  60,C  59,C  58,O  67)     59.4278         0.009986   
    629. D(H  70,C  60,C  59,H  69)    176.8037         0.010738   
    630. D(H  70,C  60,C  59,O  64)    -62.6574         0.010738   
    631. D(H  70,C  60,C  59,C  58)     60.7549         0.010738   
    632. D(O  65,C  60,C  59,O  64)     57.9959         0.010738   
    633. D(O  65,C  60,C  59,H  69)    -62.5430         0.010738   
    634. D(C  61,C  60,C  59,H  69)     58.7874         0.010738   
    635. D(O  65,C  60,C  59,C  58)   -178.5918         0.010738   
    636. D(C  61,C  60,C  59,O  64)    179.3263         0.010738   
    637. D(C  61,C  60,C  59,C  58)    -57.2613         0.010738   
    638. D(H  71,C  61,C  60,O  65)     57.9355         0.010855   
    639. D(H  71,C  61,C  60,C  59)    -60.3099         0.010855   
    640. D(O  66,C  61,C  60,H  70)     61.0950         0.010855   
    641. D(O  66,C  61,C  60,O  65)    -62.1978         0.010855   
    642. D(O  66,C  61,C  60,C  59)    179.5568         0.010855   
    643. D(C  62,C  61,C  60,H  70)    -61.3362         0.010855   
    644. D(C  62,C  61,C  60,O  65)    175.3710         0.010855   
    645. D(H  71,C  61,C  60,H  70)   -178.7717         0.010855   
    646. D(C  62,C  61,C  60,C  59)     57.1256         0.010855   
    647. D(H  72,C  62,C  61,H  71)    177.4103         0.010361   
    648. D(H  72,C  62,C  61,O  66)    -62.2366         0.010361   
    649. D(H  72,C  62,C  61,C  60)     59.8920         0.010361   
    650. D(O  67,C  62,C  61,H  71)     59.1557         0.010361   
    651. D(O  67,C  62,C  61,O  66)    179.5088         0.010361   
    652. D(O  67,C  62,C  61,C  60)    -58.3626         0.010361   
    653. D(C  63,C  62,C  61,H  71)    -59.6172         0.010361   
    654. D(C  63,C  62,C  61,O  66)     60.7359         0.010361   
    655. D(C  63,C  62,C  61,C  60)   -177.1355         0.010361   
    656. D(H 123,C  63,C  62,H  72)    117.7026         0.010575   
    657. D(H 123,C  63,C  62,O  67)   -124.1126         0.010575   
    658. D(H 123,C  63,C  62,C  61)     -4.5891         0.010575   
    659. D(H 122,C  63,C  62,H  72)   -124.5656         0.010575   
    660. D(H 122,C  63,C  62,O  67)     -6.3808         0.010575   
    661. D(H 122,C  63,C  62,C  61)    113.1427         0.010575   
    662. D(N 120,C  63,C  62,H  72)     -5.2962         0.010575   
    663. D(N 120,C  63,C  62,O  67)    112.8886         0.010575   
    664. D(N 120,C  63,C  62,C  61)   -127.5879         0.010575   
    665. D(H  73,O  64,C  59,H  69)     70.3388         0.022814   
    666. D(H  73,O  64,C  59,C  60)    -49.2376         0.022814   
    667. D(H  73,O  64,C  59,C  58)   -171.5287         0.022814   
    668. D(H  74,O  65,C  60,H  70)    -68.3921         0.023057   
    669. D(H  74,O  65,C  60,C  61)     53.8820         0.023057   
    670. D(H  74,O  65,C  60,C  59)    171.6679         0.023057   
    671. D(C  38,O  66,C  61,H  71)     -6.0531         0.019556   
    672. D(C  38,O  66,C  61,C  62)   -125.2729         0.019556   
    673. D(C  38,O  66,C  61,C  60)    113.0142         0.019556   
    674. D(C  61,O  66,C  38,H  49)    -16.7862         0.020752   
    675. D(C  61,O  66,C  38,O  47)     98.7637         0.020752   
    676. D(C  61,O  66,C  38,C  39)   -135.3314         0.020752   
    677. D(C  58,O  67,C  62,H  72)    -58.0474         0.019773   
    678. D(C  58,O  67,C  62,C  63)   -178.4154         0.019773   
    679. D(C  58,O  67,C  62,C  61)     61.6313         0.019773   
    680. D(C  62,O  67,C  58,O  83)     61.9996         0.023824   
    681. D(C  62,O  67,C  58,H  68)   -179.6655         0.023824   
    682. D(C  62,O  67,C  58,C  59)    -62.0802         0.023824   
    683. D(H  87,C  76,C  75,O 104)   -179.1587         0.011342   
    684. D(H  87,C  76,C  75,H  86)     61.8877         0.011342   
    685. D(H  87,C  76,C  75,O  84)    -55.8171         0.011342   
    686. D(O  81,C  76,C  75,O 104)     61.2897         0.011342   
    687. D(O  81,C  76,C  75,H  86)    -57.6640         0.011342   
    688. D(O  81,C  76,C  75,O  84)   -175.3688         0.011342   
    689. D(C  77,C  76,C  75,O 104)    -59.5165         0.011342   
    690. D(C  77,C  76,C  75,H  86)   -178.4702         0.011342   
    691. D(C  77,C  76,C  75,O  84)     63.8251         0.011342   
    692. D(H  88,C  77,C  76,H  87)   -160.7695         0.010980   
    693. D(H  88,C  77,C  76,O  81)    -38.4712         0.010980   
    694. D(H  88,C  77,C  76,C  75)     79.7173         0.010980   
    695. D(O  82,C  77,C  76,H  87)    -41.8686         0.010980   
    696. D(O  82,C  77,C  76,O  81)     80.4297         0.010980   
    697. D(O  82,C  77,C  76,C  75)   -161.3818         0.010980   
    698. D(C  78,C  77,C  76,H  87)     82.1886         0.010980   
    699. D(C  78,C  77,C  76,O  81)   -155.5131         0.010980   
    700. D(C  78,C  77,C  76,C  75)    -37.3246         0.010980   
    701. D(H  89,C  78,C  77,H  88)    113.5753         0.009787   
    702. D(H  89,C  78,C  77,O  82)     -8.2525         0.009787   
    703. D(H  89,C  78,C  77,C  76)   -129.3139         0.009787   
    704. D(O  83,C  78,C  77,H  88)     -5.5298         0.009787   
    705. D(O  83,C  78,C  77,O  82)   -127.3575         0.009787   
    706. D(O  83,C  78,C  77,C  76)    111.5811         0.009787   
    707. D(C  79,C  78,C  77,H  88)   -129.2001         0.009787   
    708. D(C  79,C  78,C  77,O  82)    108.9722         0.009787   
    709. D(C  79,C  78,C  77,C  76)    -12.0892         0.009787   
    710. D(H  90,C  79,C  78,H  89)    -79.3619         0.010820   
    711. D(H  90,C  79,C  78,O  83)     38.2123         0.010820   
    712. D(H  90,C  79,C  78,C  77)    162.1352         0.010820   
    713. D(O  84,C  79,C  78,H  89)    162.7061         0.010820   
    714. D(O  84,C  79,C  78,O  83)    -79.7197         0.010820   
    715. D(O  84,C  79,C  78,C  77)     44.2032         0.010820   
    716. D(C  80,C  79,C  78,H  89)     36.5003         0.010820   
    717. D(C  80,C  79,C  78,O  83)    154.0746         0.010820   
    718. D(C  80,C  79,C  78,C  77)    -82.0026         0.010820   
    719. D(H  92,C  80,C  79,H  90)    -69.9351         0.010495   
    720. D(H  92,C  80,C  79,O  84)     44.7128         0.010495   
    721. D(H  92,C  80,C  79,C  78)    173.4936         0.010495   
    722. D(H  91,C  80,C  79,H  90)    170.7048         0.010495   
    723. D(H  91,C  80,C  79,O  84)    -74.6474         0.010495   
    724. D(H  91,C  80,C  79,C  78)     54.1335         0.010495   
    725. D(O  85,C  80,C  79,H  90)     50.2076         0.010495   
    726. D(O  85,C  80,C  79,O  84)    164.8554         0.010495   
    727. D(O  85,C  80,C  79,C  78)    -66.3637         0.010495   
    728. D(H  93,O  81,C  76,H  87)     64.1754         0.021953   
    729. D(H  93,O  81,C  76,C  77)    -57.6251         0.021953   
    730. D(H  93,O  81,C  76,C  75)   -176.9613         0.021953   
    731. D(H  94,O  82,C  77,H  88)    -60.8260         0.022902   
    732. D(H  94,O  82,C  77,C  78)     58.6916         0.022902   
    733. D(H  94,O  82,C  77,C  76)   -177.1763         0.022902   
    734. D(C  58,O  83,C  78,H  89)     -8.8495         0.019029   
    735. D(C  58,O  83,C  78,C  79)   -124.3391         0.019029   
    736. D(C  58,O  83,C  78,C  77)    109.5906         0.019029   
    737. D(C  78,O  83,C  58,H  68)     40.3279         0.021860   
    738. D(C  78,O  83,C  58,O  67)    155.7213         0.021860   
    739. D(C  78,O  83,C  58,C  59)    -82.2286         0.021860   
    740. D(C  75,O  84,C  79,H  90)   -139.8144         0.019287   
    741. D(C  75,O  84,C  79,C  80)    104.9875         0.019287   
    742. D(C  75,O  84,C  79,C  78)    -20.7678         0.019287   
    743. D(C  79,O  84,C  75,O 104)     87.5202         0.024831   
    744. D(C  79,O  84,C  75,H  86)   -153.0961         0.024831   
    745. D(C  79,O  84,C  75,C  76)    -33.3092         0.024831   
    746. D(H  95,O  85,C  80,H  92)    -57.9363         0.021833   
    747. D(H  95,O  85,C  80,H  91)     63.6524         0.021833   
    748. D(H  95,O  85,C  80,C  79)   -175.8055         0.021833   
    749. D(H 107,C  96,O   8,C   3)    -16.8456         0.020795   
    750. D(O 105,C  96,O   8,C   3)     98.7120         0.020795   
    751. D(C  97,C  96,O   8,C   3)   -135.3995         0.020795   
    752. D(H 108,C  97,C  96,H 107)     45.8305         0.010377   
    753. D(H 108,C  97,C  96,O 105)    -70.1971         0.010377   
    754. D(H 108,C  97,C  96,O   8)    165.3708         0.010377   
    755. D(O 102,C  97,C  96,H 107)    -72.9374         0.010377   
    756. D(O 102,C  97,C  96,O 105)    171.0350         0.010377   
    757. D(O 102,C  97,C  96,O   8)     46.6029         0.010377   
    758. D(C  98,C  97,C  96,H 107)    163.5532         0.010377   
    759. D(C  98,C  97,C  96,O 105)     47.5257         0.010377   
    760. D(C  98,C  97,C  96,O   8)    -76.9065         0.010377   
    761. D(H 109,C  98,C  97,H 108)   -173.5396         0.010861   
    762. D(H 109,C  98,C  97,O 102)    -52.4904         0.010861   
    763. D(H 109,C  98,C  97,C  96)     68.5712         0.010861   
    764. D(O 103,C  98,C  97,H 108)    -53.8040         0.010861   
    765. D(O 103,C  98,C  97,O 102)     67.2453         0.010861   
    766. D(O 103,C  98,C  97,C  96)   -171.6931         0.010861   
    767. D(C  99,C  98,C  97,H 108)     68.3888         0.010861   
    768. D(C  99,C  98,C  97,O 102)   -170.5620         0.010861   
    769. D(C  99,C  98,C  97,C  96)    -49.5004         0.010861   
    770. D(H 110,C  99,C  98,O 103)     57.7399         0.010575   
    771. D(H 110,C  99,C  98,C  97)    -61.2053         0.010575   
    772. D(O 104,C  99,C  98,H 109)     59.0982         0.010575   
    773. D(O 104,C  99,C  98,O 103)    -63.2417         0.010575   
    774. D(O 104,C  99,C  98,C  97)    177.8131         0.010575   
    775. D(C 100,C  99,C  98,H 109)    -61.3023         0.010575   
    776. D(C 100,C  99,C  98,O 103)    176.3578         0.010575   
    777. D(H 110,C  99,C  98,H 109)   -179.9203         0.010575   
    778. D(C 100,C  99,C  98,C  97)     57.4127         0.010575   
    779. D(H 111,C 100,C  99,H 110)    172.8054         0.011027   
    780. D(H 111,C 100,C  99,O 104)    -64.6018         0.011027   
    781. D(H 111,C 100,C  99,C  98)     54.2291         0.011027   
    782. D(O 105,C 100,C  99,H 110)     54.4201         0.011027   
    783. D(O 105,C 100,C  99,O 104)    177.0129         0.011027   
    784. D(O 105,C 100,C  99,C  98)    -64.1562         0.011027   
    785. D(C 101,C 100,C  99,H 110)    -69.4022         0.011027   
    786. D(C 101,C 100,C  99,O 104)     53.1905         0.011027   
    787. D(C 101,C 100,C  99,C  98)    172.0215         0.011027   
    788. D(H 113,C 101,C 100,H 111)    -94.8333         0.010579   
    789. D(H 113,C 101,C 100,O 105)     23.6543         0.010579   
    790. D(H 113,C 101,C 100,C  99)    147.0940         0.010579   
    791. D(H 112,C 101,C 100,H 111)    145.7503         0.010579   
    792. D(H 112,C 101,C 100,O 105)    -95.7621         0.010579   
    793. D(H 112,C 101,C 100,C  99)     27.6777         0.010579   
    794. D(O 106,C 101,C 100,H 111)     21.8729         0.010579   
    795. D(O 106,C 101,C 100,O 105)    140.3604         0.010579   
    796. D(O 106,C 101,C 100,C  99)    -96.1998         0.010579   
    797. D(H 114,O 102,C  97,H 108)     68.4411         0.022393   
    798. D(H 114,O 102,C  97,C  98)    -50.8230         0.022393   
    799. D(H 114,O 102,C  97,C  96)   -174.5863         0.022393   
    800. D(H 115,O 103,C  98,H 109)    -76.9981         0.023135   
    801. D(H 115,O 103,C  98,C  99)     44.2725         0.023135   
    802. D(H 115,O 103,C  98,C  97)    163.8246         0.023135   
    803. D(C  75,O 104,C  99,H 110)      2.2952         0.021312   
    804. D(C  75,O 104,C  99,C 100)   -119.3942         0.021312   
    805. D(C  75,O 104,C  99,C  98)    122.2740         0.021312   
    806. D(C  99,O 104,C  75,H  86)    -19.0572         0.021612   
    807. D(C  99,O 104,C  75,O  84)     97.9340         0.021612   
    808. D(C  99,O 104,C  75,C  76)   -137.7560         0.021612   
    809. D(C  96,O 105,C 100,H 111)    -53.7738         0.019301   
    810. D(C  96,O 105,C 100,C 101)   -170.5703         0.019301   
    811. D(C  96,O 105,C 100,C  99)     63.2067         0.019301   
    812. D(C 100,O 105,C  96,H 107)   -171.9889         0.023840   
    813. D(C 100,O 105,C  96,C  97)    -54.2989         0.023840   
    814. D(C 100,O 105,C  96,O   8)     69.7176         0.023840   
    815. D(H 116,O 106,C 101,H 113)   -168.3551         0.022627   
    816. D(H 116,O 106,C 101,H 112)    -49.4916         0.022627   
    817. D(H 116,O 106,C 101,C 100)     73.8701         0.022627   
    818. D(C 127,C 118,C 117,C 128)      0.2058         0.024724   
    819. D(C 127,C 118,C 117,N 119)    179.9749         0.024724   
    820. D(N 120,C 118,C 117,C 128)   -179.6689         0.024724   
    821. D(N 120,C 118,C 117,N 119)      0.1002         0.024724   
    822. D(C 121,N 119,C 117,C 128)    179.3974         0.025276   
    823. D(C 121,N 119,C 117,C 118)     -0.3377         0.025276   
    824. D(C   5,N 119,C 117,C 128)      3.9512         0.025276   
    825. D(C   5,N 119,C 117,C 118)   -175.7839         0.025276   
    826. D(C 121,N 119,C   5,H 125)    -74.8392         0.017971   
    827. D(C 121,N 119,C   5,H 124)    167.5461         0.017971   
    828. D(C 121,N 119,C   5,C   4)     48.8321         0.017971   
    829. D(C 117,N 119,C   5,H 125)     99.6780         0.017971   
    830. D(C 117,N 119,C   5,H 124)    -17.9367         0.017971   
    831. D(C 117,N 119,C   5,C   4)   -136.6508         0.017971   
    832. D(C 121,N 120,C 118,C 127)   -179.6827         0.025381   
    833. D(C 121,N 120,C 118,C 117)      0.1735         0.025381   
    834. D(C  63,N 120,C 118,C 127)      4.9756         0.025381   
    835. D(C  63,N 120,C 118,C 117)   -175.1682         0.025381   
    836. D(C 121,N 120,C  63,H 123)    -71.7917         0.018043   
    837. D(C 121,N 120,C  63,H 122)    170.5296         0.018043   
    838. D(C 121,N 120,C  63,C  62)     51.7079         0.018043   
    839. D(C 118,N 120,C  63,H 123)    102.6343         0.018043   
    840. D(C 118,N 120,C  63,H 122)    -15.0444         0.018043   
    841. D(C 118,N 120,C  63,C  62)   -133.8661         0.018043   
    842. D(N 129,C 121,N 120,C 118)    179.5283         0.035317   
    843. D(N 129,C 121,N 120,C  63)     -5.3030         0.035317   
    844. D(N 119,C 121,N 120,C 118)     -0.3958         0.035317   
    845. D(N 119,C 121,N 120,C  63)    174.7730         0.035317   
    846. D(N 129,C 121,N 119,C 117)   -179.4644         0.035405   
    847. D(N 129,C 121,N 119,C   5)     -4.2373         0.035405   
    848. D(N 120,C 121,N 119,C 117)      0.4595         0.035405   
    849. D(N 120,C 121,N 119,C   5)    175.6865         0.035405   
    850. D(H 134,C 127,C 118,N 120)      0.0501         0.028233   
    851. D(H 134,C 127,C 118,C 117)   -179.7889         0.028233   
    852. D(C 131,C 127,C 118,N 120)    179.6336         0.028233   
    853. D(C 131,C 127,C 118,C 117)     -0.2054         0.028233   
    854. D(H 136,C 128,C 117,N 119)      0.2664         0.028224   
    855. D(H 136,C 128,C 117,C 118)    179.9700         0.028224   
    856. D(C 132,C 128,C 117,N 119)   -179.9045         0.028224   
    857. D(C 132,C 128,C 117,C 118)     -0.2010         0.028224   
    858. D(H 137,N 129,C 121,N 120)      7.8258         0.038640   
    859. D(H 137,N 129,C 121,N 119)   -172.2612         0.038640   
    860. D(H 130,N 129,C 121,N 120)   -170.4919         0.038640   
    861. D(H 130,N 129,C 121,N 119)      9.4211         0.038640   
    862. D(H 133,C 131,C 127,H 134)     -0.1877         0.028503   
    863. D(H 133,C 131,C 127,C 118)   -179.7774         0.028503   
    864. D(C 132,C 131,C 127,H 134)    179.8072         0.028503   
    865. D(C 132,C 131,C 127,C 118)      0.2175         0.028503   
    866. D(H 135,C 132,C 131,H 133)     -0.1053         0.026665   
    867. D(H 135,C 132,C 131,C 127)    179.8998         0.026665   
    868. D(C 128,C 132,C 131,H 133)    179.7647         0.026665   
    869. D(C 128,C 132,C 131,C 127)     -0.2302         0.026665   
    870. D(H 135,C 132,C 128,H 136)     -0.0853         0.028490   
    871. D(H 135,C 132,C 128,C 117)   -179.9170         0.028490   
    872. D(C 131,C 132,C 128,H 136)   -179.9553         0.028490   
    873. D(C 131,C 132,C 128,C 117)      0.2131         0.028490   
    -----------------------------------------------------------------

Number of atoms                         .... 138
Number of degrees of freedom            .... 873

         *************************************************************
         *                GEOMETRY OPTIMIZATION CYCLE   1            *
         *************************************************************
---------------------------------
CARTESIAN COORDINATES (ANGSTROEM)
---------------------------------
  C     28.027872  -19.630359  -15.444998
  C     27.623947  -20.798538  -16.373505
  C     28.805543  -21.148592  -17.289126
  C     29.169457  -19.872139  -18.057329
  C     29.493648  -18.739886  -17.064196
  C     29.779900  -17.436383  -17.827956
  O     27.199070  -21.912398  -15.636246
  O     28.398274  -22.187476  -18.135504
  O     30.268629  -20.114306  -18.926422
  O     28.374470  -18.519603  -16.216918
  H     27.155789  -19.316618  -14.854034
  H     26.797923  -20.435409  -17.005680
  H     29.668869  -21.457818  -16.678190
  H     28.292144  -19.566758  -18.642611
  H     30.340159  -19.024045  -16.430523
[...]
 49 H      0.9557     1.0000     0.0443     1.0022     1.0022     0.0000
 50 H      0.9666     1.0000     0.0334     0.9959     0.9959    -0.0000
 51 H      1.0075     1.0000    -0.0075     1.0053     1.0053     0.0000
 52 H      0.9826     1.0000     0.0174     1.0090     1.0090     0.0000
 53 H      1.0192     1.0000    -0.0192     1.0416     1.0416    -0.0000
 54 H      0.9681     1.0000     0.0319     1.0000     1.0000     0.0000
 55 H      0.9743     1.0000     0.0257     0.9972     0.9972     0.0000
 56 H      0.7967     1.0000     0.2033     1.0123     1.0123     0.0000
 57 H      0.7945     1.0000     0.2055     1.0497     1.0497    -0.0000
 58 C      5.7490     6.0000     0.2510     4.1346     4.1346    -0.0000
 59 C      5.8841     6.0000     0.1159     3.9934     3.9934    -0.0000
 60 C      5.8678     6.0000     0.1322     4.0994     4.0994    -0.0000
 61 C      5.9417     6.0000     0.0583     4.0104     4.0104    -0.0000
 62 C      5.9248     6.0000     0.0752     4.0484     4.0484    -0.0000
 63 C      5.8147     6.0000     0.1853     3.7977     3.7977    -0.0000
 64 O      8.2824     8.0000    -0.2824     2.1841     2.1841    -0.0000
 65 O      8.2928     8.0000    -0.2928     2.1763     2.1763    -0.0000
 66 O      8.3707     8.0000    -0.3707     2.1030     2.1030    -0.0000
 67 O      8.3131     8.0000    -0.3131     2.1939     2.1939    -0.0000
 68 H      0.9469     1.0000     0.0531     0.9892     0.9892    -0.0000
 69 H      0.9735     1.0000     0.0265     0.9958     0.9958    -0.0000
 70 H      0.9839     1.0000     0.0161     1.0180     1.0180     0.0000
 71 H      0.9779     1.0000     0.0221     1.0076     1.0076     0.0000
 72 H      0.9748     1.0000     0.0252     1.0733     1.0733    -0.0000
 73 H      0.8002     1.0000     0.1998     1.0228     1.0228     0.0000
 74 H      0.8165     1.0000     0.1835     1.0848     1.0848     0.0000
 75 C      5.7664     6.0000     0.2336     4.1389     4.1389    -0.0000
 76 C      5.8508     6.0000     0.1492     4.0725     4.0725    -0.0000
 77 C      5.9184     6.0000     0.0816     4.0909     4.0909    -0.0000
 78 C      5.8719     6.0000     0.1281     3.9710     3.9710    -0.0000
 79 C      5.9329     6.0000     0.0671     4.0927     4.0927    -0.0000
 80 C      5.8418     6.0000     0.1582     4.0055     4.0055    -0.0000
 81 O      8.2752     8.0000    -0.2752     2.2052     2.2052    -0.0000
 82 O      8.2716     8.0000    -0.2716     2.1567     2.1567     0.0000
 83 O      8.3557     8.0000    -0.3557     2.1120     2.1120     0.0000
 84 O      8.3044     8.0000    -0.3044     2.1797     2.1797    -0.0000
 85 O      8.2851     8.0000    -0.2851     2.1464     2.1464    -0.0000
 86 H      0.9590     1.0000     0.0410     0.9993     0.9993    -0.0000
 87 H      0.9722     1.0000     0.0278     1.0063     1.0063    -0.0000
 88 H      1.0038     1.0000    -0.0038     1.0465     1.0465     0.0000
 89 H      0.9685     1.0000     0.0315     1.0616     1.0616     0.0000
 90 H      0.9618     1.0000     0.0382     1.0031     1.0031    -0.0000
 91 H      0.9766     1.0000     0.0234     0.9990     0.9990    -0.0000
 92 H      0.9617     1.0000     0.0383     0.9824     0.9824     0.0000
 93 H      0.8014     1.0000     0.1986     1.0075     1.0075     0.0000
 94 H      0.8302     1.0000     0.1698     1.0740     1.0740    -0.0000
 95 H      0.8128     1.0000     0.1872     1.0026     1.0026     0.0000
 96 C      5.7549     6.0000     0.2451     4.1108     4.1108     0.0000
 97 C      5.8599     6.0000     0.1401     4.0160     4.0160    -0.0000
 98 C      5.8916     6.0000     0.1084     4.1248     4.1248    -0.0000
 99 C      5.8936     6.0000     0.1064     4.0269     4.0269     0.0000
100 C      5.9567     6.0000     0.0433     3.9919     3.9919    -0.0000
101 C      5.7719     6.0000     0.2281     3.9571     3.9571    -0.0000
102 O      8.2844     8.0000    -0.2844     2.1904     2.1904    -0.0000
103 O      8.2859     8.0000    -0.2859     2.1706     2.1706    -0.0000
104 O      8.3347     8.0000    -0.3347     2.1184     2.1184    -0.0000
105 O      8.3094     8.0000    -0.3094     2.1716     2.1716    -0.0000
106 O      8.3239     8.0000    -0.3239     2.1792     2.1792     0.0000
107 H      0.9557     1.0000     0.0443     1.0025     1.0025     0.0000
108 H      0.9665     1.0000     0.0335     0.9959     0.9959    -0.0000
109 H      1.0080     1.0000    -0.0080     1.0055     1.0055     0.0000
110 H      0.9826     1.0000     0.0174     1.0090     1.0090    -0.0000
111 H      1.0197     1.0000    -0.0197     1.0415     1.0415     0.0000
112 H      0.9679     1.0000     0.0321     0.9999     0.9999     0.0000
113 H      0.9743     1.0000     0.0257     0.9973     0.9973     0.0000
114 H      0.7966     1.0000     0.2034     1.0125     1.0125    -0.0000
115 H      0.8218     1.0000     0.1782     1.0912     1.0912     0.0000
116 H      0.7952     1.0000     0.2048     1.0500     1.0500    -0.0000
117 C      5.8400     6.0000     0.1600     3.8980     3.8980    -0.0000
118 C      5.8398     6.0000     0.1602     3.8986     3.8986    -0.0000
119 N      7.1918     7.0000    -0.1918     3.4007     3.4007    -0.0000
120 N      7.1914     7.0000    -0.1914     3.4011     3.4011    -0.0000
121 C      5.8291     6.0000     0.1709     4.1693     4.1693    -0.0000
122 H      0.9271     1.0000     0.0729     1.0313     1.0313    -0.0000
123 H      0.9318     1.0000     0.0682     1.0287     1.0287    -0.0000
124 H      0.9266     1.0000     0.0734     1.0313     1.0313    -0.0000
125 H      0.9324     1.0000     0.0676     1.0273     1.0273    -0.0000
126 H      0.8219     1.0000     0.1781     1.0909     1.0909    -0.0000
127 C      6.0857     6.0000    -0.0857     3.8385     3.8385    -0.0000
128 C      6.0858     6.0000    -0.0858     3.8383     3.8383     0.0000
129 N      7.0791     7.0000    -0.0791     3.3523     3.3523    -0.0000
130 H      0.8239     1.0000     0.1761     1.0591     1.0591     0.0000
131 C      5.9953     6.0000     0.0047     3.8449     3.8449    -0.0000
132 C      5.9952     6.0000     0.0048     3.8447     3.8447    -0.0000
133 H      0.9684     1.0000     0.0316     0.9818     0.9818    -0.0000
134 H      0.9891     1.0000     0.0109     0.9928     0.9928    -0.0000
135 H      0.9684     1.0000     0.0316     0.9818     0.9818    -0.0000
136 H      0.9891     1.0000     0.0109     0.9928     0.9928     0.0000
137 H      0.8250     1.0000     0.1750     1.0591     1.0591    -0.0000

  Mayer bond orders larger than 0.100000
B(  0-C ,  1-C ) :   0.9999 B(  0-C ,  9-O ) :   1.0514 B(  0-C , 10-H ) :   0.9117 
B(  0-C , 25-O ) :   0.9710 B(  1-C ,  2-C ) :   0.9762 B(  1-C ,  6-O ) :   1.0386 
B(  1-C , 11-H ) :   0.8840 B(  2-C ,  3-C ) :   1.0095 B(  2-C ,  7-O ) :   1.1295 
B(  2-C , 12-H ) :   0.8794 B(  3-C ,  4-C ) :   1.0004 B(  3-C ,  8-O ) :   0.9156 
B(  3-C , 13-H ) :   0.8661 B(  4-C ,  5-C ) :   0.9966 B(  4-C ,  9-O ) :   1.0002 
B(  4-C , 14-H ) :   0.8959 B(  5-C ,119-N ) :   0.9299 B(  5-C ,124-H ) :   0.9039 
B(  5-C ,125-H ) :   0.9193 B(  6-O , 15-H ) :   0.9227 B(  6-O , 36-H ) :   0.1044 
B(  7-O , 16-H ) :   0.8923 B(  8-O , 96-C ) :   0.9275 B(  8-O ,130-H ) :   0.1402 
B( 16-H ,102-O ) :   0.1391 B( 17-C , 18-C ) :   1.0108 B( 17-C , 26-O ) :   1.0933 
B( 17-C , 28-H ) :   0.8970 B( 17-C , 46-O ) :   0.9690 B( 18-C , 19-C ) :   1.0285 
B( 18-C , 23-O ) :   1.0526 B( 18-C , 29-H ) :   0.8773 B( 19-C , 20-C ) :   0.9615 
B( 19-C , 24-O ) :   1.1200 B( 19-C , 30-H ) :   0.8506 B( 20-C , 21-C ) :   1.0557 
B( 20-C , 25-O ) :   0.9329 B( 20-C , 31-H ) :   0.8672 B( 21-C , 22-C ) :   1.0301 
B( 21-C , 26-O ) :   0.9545 B( 21-C , 32-H ) :   0.8872 B( 22-C , 27-O ) :   1.0779 
B( 22-C , 33-H ) :   0.9231 B( 22-C , 34-H ) :   0.9193 B( 23-O , 35-H ) :   0.9432 
B( 23-O ,126-H ) :   0.1390 B( 24-O , 36-H ) :   0.9290 B( 27-O , 37-H ) :   0.9617 
B( 38-C , 39-C ) :   0.9988 B( 38-C , 47-O ) :   1.0849 B( 38-C , 49-H ) :   0.8967 
B( 38-C , 66-O ) :   0.9293 B( 39-C , 40-C ) :   1.0022 B( 39-C , 44-O ) :   1.0402 
B( 39-C , 50-H ) :   0.8852 B( 40-C , 41-C ) :   0.9779 B( 40-C , 45-O ) :   1.1537 
B( 40-C , 51-H ) :   0.8835 B( 41-C , 42-C ) :   1.0044 B( 41-C , 46-O ) :   0.9933 
B( 41-C , 52-H ) :   0.8764 B( 42-C , 43-C ) :   0.9943 B( 42-C , 47-O ) :   0.9331 
B( 42-C , 53-H ) :   0.8707 B( 43-C , 48-O ) :   1.0766 B( 43-C , 54-H ) :   0.9267 
B( 43-C , 55-H ) :   0.9249 B( 44-O , 56-H ) :   0.9340 B( 44-O , 74-H ) :   0.1385 
B( 45-O ,126-H ) :   0.8927 B( 48-O , 57-H ) :   0.8918 B( 58-C , 59-C ) :   1.0000 
B( 58-C , 67-O ) :   1.0519 B( 58-C , 68-H ) :   0.9116 B( 58-C , 83-O ) :   0.9703 
B( 59-C , 60-C ) :   0.9759 B( 59-C , 64-O ) :   1.0392 B( 59-C , 69-H ) :   0.8841 
B( 60-C , 61-C ) :   1.0095 B( 60-C , 65-O ) :   1.1308 B( 60-C , 70-H ) :   0.8788 
B( 61-C , 62-C ) :   0.9995 B( 61-C , 66-O ) :   0.9169 B( 61-C , 71-H ) :   0.8664 
B( 62-C , 63-C ) :   0.9964 B( 62-C , 67-O ) :   1.0001 B( 62-C , 72-H ) :   0.8967 
B( 63-C ,120-N ) :   0.9303 B( 63-C ,122-H ) :   0.9036 B( 63-C ,123-H ) :   0.9191 
B( 64-O , 73-H ) :   0.9231 B( 64-O , 94-H ) :   0.1030 B( 65-O , 74-H ) :   0.8927 
B( 66-O ,137-H ) :   0.1373 B( 75-C , 76-C ) :   1.0118 B( 75-C , 84-O ) :   1.0930 
B( 75-C , 86-H ) :   0.8970 B( 75-C ,104-O ) :   0.9698 B( 76-C , 77-C ) :   1.0281 
B( 76-C , 81-O ) :   1.0511 B( 76-C , 87-H ) :   0.8774 B( 77-C , 78-C ) :   0.9615 
B( 77-C , 82-O ) :   1.1191 B( 77-C , 88-H ) :   0.8510 B( 78-C , 79-C ) :   1.0563 
B( 78-C , 83-O ) :   0.9330 B( 78-C , 89-H ) :   0.8671 B( 79-C , 80-C ) :   1.0295 
B( 79-C , 84-O ) :   0.9554 B( 79-C , 90-H ) :   0.8871 B( 80-C , 85-O ) :   1.0776 
B( 80-C , 91-H ) :   0.9230 B( 80-C , 92-H ) :   0.9192 B( 81-O , 93-H ) :   0.9432 
B( 81-O ,115-H ) :   0.1401 B( 82-O , 94-H ) :   0.9298 B( 85-O , 95-H ) :   0.9618 
B( 96-C , 97-C ) :   0.9988 B( 96-C ,105-O ) :   1.0863 B( 96-C ,107-H ) :   0.8966 
B( 97-C , 98-C ) :   1.0027 B( 97-C ,102-O ) :   1.0398 B( 97-C ,108-H ) :   0.8850 
B( 98-C , 99-C ) :   0.9777 B( 98-C ,103-O ) :   1.1537 B( 98-C ,109-H ) :   0.8833 
B( 99-C ,100-C ) :   1.0036 B( 99-C ,104-O ) :   0.9937 B( 99-C ,110-H ) :   0.8767 
B(100-C ,101-C ) :   0.9938 B(100-C ,105-O ) :   0.9337 B(100-C ,111-H ) :   0.8703 
B(101-C ,106-O ) :   1.0767 B(101-C ,112-H ) :   0.9272 B(101-C ,113-H ) :   0.9247 
B(102-O ,114-H ) :   0.9337 B(103-O ,115-H ) :   0.8921 B(106-O ,116-H ) :   0.8931 
B(117-C ,118-C ) :   1.3230 B(117-C ,119-N ) :   1.0800 B(117-C ,128-C ) :   1.3325 
B(118-C ,120-N ) :   1.0801 B(118-C ,127-C ) :   1.3325 B(119-N ,121-C ) :   1.2339 
B(120-N ,121-C ) :   1.2341 B(121-C ,129-N ) :   1.3761 B(127-C ,128-C ) :   0.1083 
B(127-C ,131-C ) :   1.3665 B(127-C ,134-H ) :   0.9914 B(128-C ,132-C ) :   1.3662 
B(128-C ,136-H ) :   0.9916 B(129-N ,130-H ) :   0.8358 B(129-N ,137-H ) :   0.8378 
B(131-C ,132-C ) :   1.3713 B(131-C ,133-H ) :   0.9715 B(132-C ,135-H ) :   0.9715 



------------------
HIRSHFELD ANALYSIS
------------------

Total integrated alpha density =    283.000230145
Total integrated beta density  =    283.000230145

  ATOM     CHARGE      SPIN    
   0 C    0.140203    0.000000
   1 C    0.050540    0.000000
   2 C    0.037986    0.000000
   3 C    0.048601    0.000000
   4 C    0.056097    0.000000
   5 C    0.027395    0.000000
   6 O   -0.183320    0.000000
   7 O   -0.228013    0.000000
   8 O   -0.133145    0.000000
   9 O   -0.152285    0.000000
  10 H    0.046601    0.000000
  11 H    0.030241    0.000000
  12 H    0.019996    0.000000
  13 H    0.030903    0.000000
  14 H    0.018670    0.000000
  15 H    0.162270    0.000000
  16 H    0.118259    0.000000
  17 C    0.131663    0.000000
  18 C    0.049262    0.000000
  19 C    0.038909    0.000000
  20 C    0.053609    0.000000
  21 C    0.060585    0.000000
  22 C    0.034827    0.000000
  23 O   -0.177955    0.000000
  24 O   -0.239998    0.000000
  25 O   -0.140796    0.000000
  26 O   -0.162949    0.000000
  27 O   -0.217151    0.000000
  28 H    0.040599    0.000000
  29 H    0.032453    0.000000
  30 H    0.009874    0.000000
  31 H    0.032878    0.000000
  32 H    0.038476    0.000000
  33 H    0.023848    0.000000
  34 H    0.030474    0.000000
  35 H    0.175743    0.000000
  36 H    0.125457    0.000000
  37 H    0.176316    0.000000
  38 C    0.136099    0.000000
  39 C    0.053741    0.000000
  40 C    0.038772    0.000000
  41 C    0.047093    0.000000
  42 C    0.043210    0.000000
  43 C    0.034403    0.000000
  44 O   -0.179487    0.000000
  45 O   -0.235770    0.000000
  46 O   -0.150269    0.000000
  47 O   -0.158837    0.000000
  48 O   -0.231064    0.000000
  49 H    0.043042    0.000000
  50 H    0.034596    0.000000
  51 H    0.013440    0.000000
  52 H    0.030061    0.000000
  53 H    0.004493    0.000000
  54 H    0.027657    0.000000
  55 H    0.032481    0.000000
  56 H    0.174956    0.000000
  57 H    0.111311    0.000000
  58 C    0.140109    0.000000
  59 C    0.050495    0.000000
  60 C    0.037796    0.000000
  61 C    0.048518    0.000000
  62 C    0.056198    0.000000
  63 C    0.027225    0.000000
  64 O   -0.183653    0.000000
  65 O   -0.228191    0.000000
  66 O   -0.134471    0.000000
  67 O   -0.152370    0.000000
  68 H    0.046516    0.000000
  69 H    0.030172    0.000000
  70 H    0.019812    0.000000
  71 H    0.030903    0.000000
  72 H    0.018823    0.000000
  73 H    0.162601    0.000000
  74 H    0.118538    0.000000
  75 C    0.131642    0.000000
  76 C    0.049376    0.000000
  77 C    0.039092    0.000000
  78 C    0.053372    0.000000
  79 C    0.060465    0.000000
  80 C    0.034713    0.000000
  81 O   -0.177158    0.000000
  82 O   -0.239623    0.000000
  83 O   -0.140878    0.000000
  84 O   -0.163181    0.000000
  85 O   -0.217264    0.000000
  86 H    0.040587    0.000000
  87 H    0.032498    0.000000
  88 H    0.010162    0.000000
  89 H    0.032762    0.000000
  90 H    0.038499    0.000000
  91 H    0.023778    0.000000
  92 H    0.030442    0.000000
  93 H    0.176149    0.000000
  94 H    0.126123    0.000000
  95 H    0.176229    0.000000
  96 C    0.136172    0.000000
  97 C    0.053700    0.000000
  98 C    0.038674    0.000000
  99 C    0.047147    0.000000
 100 C    0.043269    0.000000
 101 C    0.034508    0.000000
 102 O   -0.179011    0.000000
 103 O   -0.235923    0.000000
 104 O   -0.150305    0.000000
 105 O   -0.159136    0.000000
 106 O   -0.230860    0.000000
 107 H    0.043088    0.000000
 108 H    0.034654    0.000000
 109 H    0.013275    0.000000
 110 H    0.030084    0.000000
 111 H    0.004497    0.000000
 112 H    0.027821    0.000000
 113 H    0.032466    0.000000
 114 H    0.174854    0.000000
 115 H    0.117460    0.000000
 116 H    0.111922    0.000000
 117 C    0.041144    0.000000
 118 C    0.041245    0.000000
 119 N   -0.013568    0.000000
 120 N   -0.013543    0.000000
 121 C    0.197719    0.000000
 122 H    0.055984    0.000000
 123 H    0.035490    0.000000
 124 H    0.055997    0.000000
 125 H    0.035786    0.000000
 126 H    0.117977    0.000000
 127 C   -0.033701    0.000000
 128 C   -0.033776    0.000000
 129 N   -0.121217    0.000000
 130 H    0.101664    0.000000
 131 C   -0.022815    0.000000
 132 C   -0.022838    0.000000
 133 H    0.051013    0.000000
 134 H    0.050575    0.000000
 135 H    0.051007    0.000000
 136 H    0.050553    0.000000
 137 H    0.102633    0.000000

  TOTAL   0.999540    0.000000

-------
TIMINGS
-------

Total SCF time: 0 days 0 hours 0 min 35 sec 

Total time                  ....      35.159 sec
Sum of individual times     ....      31.513 sec  ( 89.6%)

Fock matrix formation       ....      15.676 sec  ( 44.6%)
  Split-RI-J                ....      10.492 sec  ( 66.9% of F)
  XC integration            ....       4.469 sec  ( 28.5% of F)
    Basis function eval.    ....       0.997 sec  ( 22.3% of XC)
    Density eval.           ....       1.323 sec  ( 29.6% of XC)
    XC-Functional eval.     ....       0.113 sec  (  2.5% of XC)
    XC-Potential eval.      ....       0.475 sec  ( 10.6% of XC)
Diagonalization             ....       0.478 sec  (  1.4%)
Density matrix formation    ....       0.258 sec  (  0.7%)
Population analysis         ....       4.570 sec  ( 13.0%)
Initial guess               ....       1.062 sec  (  3.0%)
Orbital Transformation      ....       0.000 sec  (  0.0%)
Orbital Orthonormalization  ....       0.962 sec  (  2.7%)
DIIS solution               ....       0.603 sec  (  1.7%)
SOSCF solution              ....       4.069 sec  ( 11.6%)
Grid generation             ....       4.798 sec  ( 13.6%)

Maximum memory used throughout the entire SCF-calculation: 396.8 MB


-------------------------------------------------------------------------------
                          DFT DISPERSION CORRECTION                            
                                                                               
                                 DFTD4 V2.5                                    
-------------------------------------------------------------------------------
The BP86 functional is recognized
Active option DFTDOPT                   ...         5   

Starting D4
-------------------------   ----------------
Dispersion correction           -0.312835200
-------------------------   ----------------


-------------------------   --------------------
FINAL SINGLE POINT ENERGY     -3944.863364827301
-------------------------   --------------------

                                *** OPTIMIZATION RUN DONE ***

                            ***************************************
                            *     ORCA property calculations      *
                            ***************************************

                                    ---------------------
                                    Active property flags
                                    ---------------------
   (+) Dipole Moment


------------------------------------------------------------------------------
                       ORCA ELECTRIC PROPERTIES CALCULATION
------------------------------------------------------------------------------

Dipole Moment Calculation                       ... on
Quadrupole Moment Calculation                   ... off
Polarizability Calculation                      ... off
GBWName                                         ... aBiCyDNH2_opt_orca.gbw
Electron density                                ... aBiCyDNH2_opt_orca.scfp
The origin for moment calculation is the CENTER OF MASS  = (61.619605, -36.283434 -33.436423)

-------------
DIPOLE MOMENT
-------------
                                X             Y             Z
Electronic contribution:     -0.85040       4.36582       0.55278
Nuclear contribution   :      0.85170      -4.29643      -0.55371
                        -----------------------------------------
Total Dipole Moment    :      0.00131       0.06939      -0.00093
                        -----------------------------------------
Magnitude (a.u.)       :      0.06941
Magnitude (Debye)      :      0.17642



--------------------
Rotational spectrum 
--------------------
 
Rotational constants in cm-1:     0.001551     0.000711     0.000706 
Rotational constants in MHz :    46.490829    21.308745    21.157861 

 Dipole components along the rotational axes: 
x,y,z [a.u.] :    -0.016592     0.003686     0.067295 
x,y,z [Debye]:    -0.042172     0.009368     0.171051 

 

Timings for individual modules:

Sum of individual times         ...     1655.833 sec (=  27.597 min)
GTO integral calculation        ...      180.870 sec (=   3.015 min)  10.9 %
SCF iterations                  ...     1064.446 sec (=  17.741 min)  64.3 %
SCF Gradient evaluation         ...      384.722 sec (=   6.412 min)  23.2 %
Geometry relaxation             ...       25.794 sec (=   0.430 min)   1.6 %
                             ****ORCA TERMINATED NORMALLY****
TOTAL RUN TIME: 0 days 0 hours 29 minutes 23 seconds 560 msec
