      -----------------------------------------------------------      
     |                   =====================                   |     
     |                           x T B                           |     
     |                   =====================                   |     
     |                         S. Grimme                         |     
     |          Mulliken Center for Theoretical Chemistry        |     
     |                    University of Bonn                     |     
      -----------------------------------------------------------      

   * xtb version 6.4.1 (bd6e46d) compiled by 'conda@4901f00b25ba' on 2021-06-10

   xtb is free software: you can redistribute it and/or modify it under
   the terms of the GNU Lesser General Public License as published by
   the Free Software Foundation, either version 3 of the License, or
   (at your option) any later version.
   
   xtb is distributed in the hope that it will be useful,
   but WITHOUT ANY WARRANTY; without even the implied warranty of
   MERCHANTABILITY or FITNESS FOR A PARTICULAR PURPOSE.  See the
   GNU Lesser General Public License for more details.
   
   Cite this work as:
   * C. Bannwarth, E. Caldeweyher, S. Ehlert, A. Hansen, P. Pracht,
     J. Seibert, S. Spicher, S. Grimme, WIREs Comput. Mol. Sci., 2020, 11,
     e01493. DOI: 10.1002/wcms.1493
   
   for GFN2-xTB:
   * C. Bannwarth, S. Ehlert and S. Grimme., J. Chem. Theory Comput., 2019,
     15, 1652-1671. DOI: 10.1021/acs.jctc.8b01176
   for GFN1-xTB:
   * S. Grimme, C. Bannwarth, P. Shushkov, J. Chem. Theory Comput., 2017,
     13, 1989-2009. DOI: 10.1021/acs.jctc.7b00118
   for GFN0-xTB:
   * P. Pracht, E. Caldeweyher, S. Ehlert, S. Grimme, ChemRxiv, 2019, preprint.
     DOI: 10.26434/chemrxiv.8326202.v1
   for GFN-FF:
   * S. Spicher and S. Grimme, Angew. Chem. Int. Ed., 2020, 59, 15665-15673.
     DOI: 10.1002/anie.202004239
   
   for DFT-D4:
   * E. Caldeweyher, C. Bannwarth and S. Grimme, J. Chem. Phys., 2017,
     147, 034112. DOI: 10.1063/1.4993215
   * E. Caldeweyher, S. Ehlert, A. Hansen, H. Neugebauer, S. Spicher,
     C. Bannwarth and S. Grimme, J. Chem. Phys., 2019, 150, 154122.
     DOI: 10.1063/1.5090222
   * E. Caldeweyher, J.-M. Mewes, S. Ehlert and S. Grimme, Phys. Chem. Chem. Phys.
     2020, 22, 8499-8512. DOI: 10.1039/D0CP00502A
   
   for sTDA-xTB:
   * S. Grimme and C. Bannwarth, J. Chem. Phys., 2016, 145, 054103.
     DOI: 10.1063/1.4959605
   
   in the mass-spec context:
   * V. Asgeirsson, C. Bauer and S. Grimme, Chem. Sci., 2017, 8, 4879.
     DOI: 10.1039/c7sc00601b
   * J. Koopman and S. Grimme, ACS Omega 2019, 4, 12, 15120-15133.
     DOI: 10.1021/acsomega.9b02011
   
   for metadynamics refer to:
   * S. Grimme, J. Chem. Theory Comput., 2019, 155, 2847-2862
     DOI: 10.1021/acs.jctc.9b00143
   
   for SPH calculations refer to:
   * S. Spicher and S. Grimme, J. Chem. Theory Comput., 2021, 17, 1701-1714
     DOI: 10.1021/acs.jctc.0c01306
   
   with help from (in alphabetical order)
   P. Atkinson, C. Bannwarth, F. Bohle, G. Brandenburg, E. Caldeweyher
   M. Checinski, S. Dohm, S. Ehlert, S. Ehrlich, I. Gerasimov, J. Koopman
   C. Lavigne, S. Lehtola, F. März, M. Müller, F. Musil, H. Neugebauer
   J. Pisarek, C. Plett, P. Pracht, J. Seibert, P. Shushkov, S. Spicher
   M. Stahn, M. Steiner, T. Strunk, J. Stückrath, T. Rose, and J. Unsleber
   
 * started run on 2022/03/19 at 13:22:24.290     

           -------------------------------------------------
          |                Calculation Setup                |
           -------------------------------------------------

          program call               : /jet/home/maihfly/.conda/envs/Cyclodextrins-Env/bin/xtb aBiCyDNH2_opt_xtb.xyz --chrg 1 --uhf 0 --opt
          hostname                   : l012
          coordinate file            : aBiCyDNH2_opt_xtb.xyz
          omp threads                :                    36
          number of atoms            :                   138
          number of electrons        :                   418
          charge                     :                     1
          spin                       :                   0.0
          first test random number   :      0.86547848689808

   ID    Z sym.   atoms
    1    6 C      1-6, 18-23, 39-44, 59-64, 76-81, 97-102, 118, 119, 122,
                  128, 129, 132, 133
    2    8 O      7-10, 24-28, 45-49, 65-68, 82-86, 103-107
    3    1 H      11-17, 29-38, 50-58, 69-75, 87-96, 108-117, 123-127, 131,
                  134-138
    4    7 N      120, 121, 130

           -------------------------------------------------
          |                 G F N 2 - x T B                 |
           -------------------------------------------------

        Reference                      10.1021/acs.jctc.8b01176
      * Hamiltonian:
        H0-scaling (s, p, d)           1.850000    2.230000    2.230000
        zeta-weighting                 0.500000
      * Dispersion:
        s8                             2.700000
        a1                             0.520000
        a2                             5.000000
        s9                             5.000000
      * Repulsion:
        kExp                           1.500000    1.000000
        rExp                           1.000000
      * Coulomb:
        alpha                          2.000000
        third order                    shell-resolved
        anisotropic                    true
        a3                             3.000000
        a5                             4.000000
        cn-shift                       1.200000
        cn-exp                         4.000000
        max-rad                        5.000000


          ...................................................
          :                      SETUP                      :
          :.................................................:
          :  # basis functions                 360          :
          :  # atomic orbitals                 360          :
          :  # shells                          212          :
          :  # electrons                       418          :
          :  max. iterations                   250          :
          :  Hamiltonian                  GFN2-xTB          :
          :  restarted?                      false          :
          :  GBSA solvation                  false          :
          :  PC potential                    false          :
          :  electronic temp.          300.0000000     K    :
          :  accuracy                    1.0000000          :
          :  -> integral cutoff          0.2500000E+02      :
          :  -> integral neglect         0.1000000E-07      :
          :  -> SCF convergence          0.1000000E-05 Eh   :
          :  -> wf. convergence          0.1000000E-03 e    :
          :  Broyden damping             0.4000000          :
          ...................................................

 iter      E             dE          RMSdq      gap      omega  full diag
   1   -248.6935419 -0.248694E+03  0.450E+00    2.88       0.0  T
   2   -248.9865077 -0.292966E+00  0.249E+00    3.23       1.0  T
   3   -248.9943848 -0.787704E-02  0.850E-01    2.80       1.0  T
   4   -249.0028831 -0.849835E-02  0.183E-01    2.62       1.0  T
   5   -249.0042520 -0.136886E-02  0.937E-02    2.85       1.0  T
   6   -249.0047717 -0.519733E-03  0.397E-02    2.84       1.0  T
   7   -249.0048237 -0.519426E-04  0.158E-02    2.86       1.0  T
   8   -249.0048308 -0.712370E-05  0.380E-03    2.85       2.2  T
   9   -249.0048311 -0.306398E-06  0.148E-03    2.85       5.8  T
  10   -249.0048312 -0.448754E-07  0.701E-04    2.85      12.1  T
  11   -249.0048312 -0.185091E-07  0.255E-04    2.85      33.4  T

   *** convergence criteria satisfied after 11 iterations ***

         #    Occupation            Energy/Eh            Energy/eV
      -------------------------------------------------------------
         1        2.0000           -0.8386731             -22.8215
       ...           ...                  ...                  ...
       203        2.0000           -0.4985193             -13.5654
       204        2.0000           -0.4982674             -13.5585
       205        2.0000           -0.4968602             -13.5203
       206        2.0000           -0.4953330             -13.4787
       207        2.0000           -0.4931740             -13.4199
       208        2.0000           -0.4903741             -13.3438
       209        2.0000           -0.4879202             -13.2770 (HOMO)
       210                         -0.3830811             -10.4242 (LUMO)
       211                         -0.3392991              -9.2328
       212                         -0.3310260              -9.0077
       213                         -0.2237968              -6.0898
       214                         -0.2142016              -5.8287
       ...                                ...                  ...
       360                          0.5471153              14.8878
      -------------------------------------------------------------
                  HL-Gap            0.1048392 Eh            2.8528 eV
             Fermi-level           -0.4355007 Eh          -11.8506 eV

 SCC (total)                   0 d,  0 h,  0 min,  0.673 sec
 SCC setup                      ...        0 min,  0.007 sec (  1.021%)
 Dispersion                     ...        0 min,  0.028 sec (  4.145%)
 classical contributions        ...        0 min,  0.012 sec (  1.832%)
 integral evaluation            ...        0 min,  0.020 sec (  3.012%)
 iterations                     ...        0 min,  0.556 sec ( 82.577%)
 molecular gradient             ...        0 min,  0.035 sec (  5.233%)
 printout                       ...        0 min,  0.014 sec (  2.153%)

         :::::::::::::::::::::::::::::::::::::::::::::::::::::
         ::                     SUMMARY                     ::
         :::::::::::::::::::::::::::::::::::::::::::::::::::::
         :: total energy            -247.078248367771 Eh    ::
         :: gradient norm              0.170691742518 Eh/a0 ::
         :: HOMO-LUMO gap              2.852819299618 eV    ::
         ::.................................................::
         :: SCC energy              -249.004831171128 Eh    ::
         :: -> isotropic ES            0.674193527300 Eh    ::
         :: -> anisotropic ES         -0.045739676650 Eh    ::
         :: -> anisotropic XC         -0.022131151909 Eh    ::
         :: -> dispersion             -0.173015606535 Eh    ::
         :: repulsion energy           1.914635824403 Eh    ::
         :: add. restraining           0.000000000000 Eh    ::
         :: total charge               1.000000000000 e     ::
         :::::::::::::::::::::::::::::::::::::::::::::::::::::

      ----------------------------------------------------------- 
     |                   =====================                   |
     |                        A N C O P T                        |
     |                   =====================                   |
     |               Approximate Normal Coordinate               |
     |                Rational Function Optimizer                |
      ----------------------------------------------------------- 

          ...................................................
          :                      SETUP                      :
          :.................................................:
          :   optimization level            normal          :
          :   max. optcycles                   414          :
          :   ANC micro-cycles                  20          :
          :   degrees of freedom               408          :
          :.................................................:
          :   RF solver                   davidson          :
          :   write xtbopt.log                true          :
          :   linear?                        false          :
          :   energy convergence         0.5000000E-05 Eh   :
          :   grad. convergence          0.1000000E-02 Eh/α :
          :   maximium RF displ.         1.0000000          :
          :   Hlow (freq-cutoff)         0.1000000E-01      :
          :   Hmax (freq-cutoff)         5.0000000          :
          :   S6 in model hess.         20.0000000          :
          ...................................................

generating ANC from model Hessian ...
Using Lindh-Hessian (1995)
 Shifting diagonal of input Hessian by    9.8821125005529656E-003
 Lowest  eigenvalues of input Hessian
    0.000000    0.000000    0.000000    0.000000    0.000000    0.000000
    0.010000    0.010058    0.010109    0.010235    0.010278    0.010438
    0.010738    0.010962    0.011038    0.011096    0.011213    0.011452
 Highest eigenvalues
    1.748929    1.911240    1.929312    1.981777    2.097705    2.134313


........................................................................
.............................. CYCLE    1 ..............................
........................................................................
   1   -249.0048312 -0.249005E+03  0.103E-04    2.85       0.0  T
   2   -249.0048312 -0.246644E-09  0.630E-05    2.85     135.2  T
   3   -249.0048312 -0.704006E-10  0.405E-05    2.85     210.3  T
     SCC iter.                  ...        0 min,  0.139 sec
     gradient                   ...        0 min,  0.044 sec
 * total energy  :  -247.0782484 Eh     change       -0.3691241E-08 Eh
   gradient norm :     0.1706888 Eh/α   predicted     0.0000000E+00 (-100.00%)
   displ. norm   :     0.4633678 α      lambda       -0.4777448E-01
   maximum displ.:     0.1173725 α      in ANC's #71, #155, #80, ...

........................................................................
.............................. CYCLE    2 ..............................
........................................................................
   1   -249.0979089 -0.249098E+03  0.166E-01    3.08       0.0  T
   2   -249.0982357 -0.326840E-03  0.101E-01    3.05       1.0  T
   3   -249.0982116  0.240814E-04  0.351E-02    3.09       1.0  T
   4   -249.0982705 -0.588331E-04  0.949E-03    3.07       1.0  T
   5   -249.0982793 -0.885513E-05  0.338E-03    3.07       2.5  T
   6   -249.0982795 -0.187254E-06  0.140E-03    3.07       6.1  T
   7   -249.0982796 -0.979137E-07  0.665E-04    3.07      12.8  T
   8   -249.0982796 -0.138402E-07  0.215E-04    3.07      39.6  T
     SCC iter.                  ...        0 min,  0.280 sec
     gradient                   ...        0 min,  0.034 sec
 * total energy  :  -247.1141634 Eh     change       -0.3591505E-01 Eh
   gradient norm :     0.0887678 Eh/α   predicted    -0.2902398E-01 ( -19.19%)
   displ. norm   :     0.4948401 α      lambda       -0.2436788E-01
   maximum displ.:     0.1415867 α      in ANC's #71, #80, #66, ...

........................................................................
.............................. CYCLE    3 ..............................
........................................................................
   1   -249.1608663 -0.249161E+03  0.146E-01    3.21       0.0  T
   2   -249.1611742 -0.307931E-03  0.883E-02    3.21       1.0  T
   3   -249.1611735  0.751275E-06  0.320E-02    3.23       1.0  T
   4   -249.1612016 -0.280600E-04  0.792E-03    3.23       1.1  T
   5   -249.1612067 -0.517195E-05  0.313E-03    3.23       2.7  T
   6   -249.1612070 -0.287460E-06  0.126E-03    3.23       6.7  T
   7   -249.1612071 -0.105382E-06  0.593E-04    3.23      14.4  T
   8   -249.1612071 -0.704989E-08  0.174E-04    3.23      49.0  T
     SCC iter.                  ...        0 min,  0.271 sec
     gradient                   ...        0 min,  0.033 sec
 * total energy  :  -247.1292985 Eh     change       -0.1513510E-01 Eh
   gradient norm :     0.0245878 Eh/α   predicted    -0.1516738E-01 (   0.21%)
   displ. norm   :     0.4016628 α      lambda       -0.5098406E-02
   maximum displ.:     0.1128784 α      in ANC's #44, #24, #71, ...

........................................................................
.............................. CYCLE    4 ..............................
........................................................................
   1   -249.1719658 -0.249172E+03  0.724E-02    3.23       0.0  T
   2   -249.1719838 -0.180116E-04  0.431E-02    3.24       1.0  T
   3   -249.1719813  0.247192E-05  0.857E-03    3.24       1.0  T
   4   -249.1719868 -0.542477E-05  0.270E-03    3.24       3.1  T
   5   -249.1719872 -0.421634E-06  0.136E-03    3.24       6.2  T
   6   -249.1719873 -0.922209E-07  0.485E-04    3.24      17.6  T
   7   -249.1719873 -0.566610E-08  0.209E-04    3.24      40.7  T
     SCC iter.                  ...        0 min,  0.237 sec
     gradient                   ...        0 min,  0.033 sec
 * total energy  :  -247.1329885 Eh     change       -0.3690008E-02 Eh
   gradient norm :     0.0178837 Eh/α   predicted    -0.2960476E-02 ( -19.77%)
   displ. norm   :     0.4378824 α      lambda       -0.2889269E-02
   maximum displ.:     0.1696131 α      in ANC's #24, #44, #20, ...

........................................................................
.............................. CYCLE    5 ..............................
........................................................................
   1   -249.1769314 -0.249177E+03  0.628E-02    3.23       0.0  T
   2   -249.1769427 -0.113548E-04  0.377E-02    3.24       1.0  T
   3   -249.1769380  0.475057E-05  0.857E-03    3.24       1.0  T
   4   -249.1769460 -0.802936E-05  0.244E-03    3.24       3.5  T
   5   -249.1769462 -0.207619E-06  0.126E-03    3.24       6.8  T
   6   -249.1769463 -0.549134E-07  0.494E-04    3.24      17.2  T
   7   -249.1769463 -0.103478E-07  0.185E-04    3.24      46.0  T
     SCC iter.                  ...        0 min,  0.239 sec
     gradient                   ...        0 min,  0.033 sec
 * total energy  :  -247.1350520 Eh     change       -0.2063491E-02 Eh
   gradient norm :     0.0135666 Eh/α   predicted    -0.1721631E-02 ( -16.57%)
   displ. norm   :     0.4124861 α      lambda       -0.1558776E-02
   maximum displ.:     0.1931668 α      in ANC's #24, #44, #18, ...

........................................................................
.............................. CYCLE    6 ..............................
........................................................................
   1   -249.1805890 -0.249181E+03  0.516E-02    3.24       0.0  T
   2   -249.1805960 -0.703157E-05  0.312E-02    3.25       1.0  T
   3   -249.1805931  0.289548E-05  0.675E-03    3.25       1.3  T
   4   -249.1805984 -0.522390E-05  0.203E-03    3.25       4.2  T
   5   -249.1805985 -0.131562E-06  0.107E-03    3.25       8.0  T
   6   -249.1805985 -0.394119E-07  0.406E-04    3.25      21.0  T
   7   -249.1805985 -0.657442E-08  0.146E-04    3.25      58.3  T
     SCC iter.                  ...        0 min,  0.249 sec
     gradient                   ...        0 min,  0.034 sec
 * total energy  :  -247.1362154 Eh     change       -0.1163343E-02 Eh
   gradient norm :     0.0116716 Eh/α   predicted    -0.9119981E-03 ( -21.61%)
   displ. norm   :     0.4216981 α      lambda       -0.1140171E-02
   maximum displ.:     0.2068208 α      in ANC's #24, #18, #6, ...

........................................................................
.............................. CYCLE    7 ..............................
........................................................................
   1   -249.1837620 -0.249184E+03  0.500E-02    3.26       0.0  T
   2   -249.1837679 -0.588717E-05  0.303E-02    3.26       1.0  T
   3   -249.1837668  0.105524E-05  0.531E-03    3.26       1.6  T
   4   -249.1837698 -0.296406E-05  0.192E-03    3.26       4.4  T
   5   -249.1837699 -0.122808E-06  0.988E-04    3.26       8.6  T
   6   -249.1837700 -0.400061E-07  0.364E-04    3.26      23.4  T
     SCC iter.                  ...        0 min,  0.279 sec
     gradient                   ...        0 min,  0.037 sec
 * total energy  :  -247.1370622 Eh     change       -0.8468209E-03 Eh
   gradient norm :     0.0090622 Eh/α   predicted    -0.6714681E-03 ( -20.71%)
   displ. norm   :     0.3892759 α      lambda       -0.7610360E-03
   maximum displ.:     0.1760120 α      in ANC's #24, #6, #17, ...

........................................................................
.............................. CYCLE    8 ..............................
........................................................................
   1   -249.1854920 -0.249185E+03  0.459E-02    3.28       0.0  T
   2   -249.1854969 -0.486448E-05  0.279E-02    3.28       1.0  T
   3   -249.1854972 -0.268013E-06  0.382E-03    3.28       2.2  T
   4   -249.1854983 -0.109742E-05  0.164E-03    3.28       5.2  T
   5   -249.1854983 -0.829387E-07  0.862E-04    3.28       9.9  T
   6   -249.1854984 -0.417014E-07  0.308E-04    3.28      27.7  T
     SCC iter.                  ...        0 min,  0.269 sec
     gradient                   ...        0 min,  0.039 sec
 * total energy  :  -247.1376136 Eh     change       -0.5514418E-03 Eh
   gradient norm :     0.0072518 Eh/α   predicted    -0.4381923E-03 ( -20.54%)
   displ. norm   :     0.3222680 α      lambda       -0.4492193E-03
   maximum displ.:     0.1404677 α      in ANC's #6, #24, #17, ...

........................................................................
.............................. CYCLE    9 ..............................
........................................................................
   1   -249.1863059 -0.249186E+03  0.380E-02    3.29       0.0  T
   2   -249.1863092 -0.329591E-05  0.230E-02    3.29       1.0  T
   3   -249.1863096 -0.409717E-06  0.278E-03    3.29       3.1  T
   4   -249.1863101 -0.438230E-06  0.119E-03    3.29       7.2  T
   5   -249.1863101 -0.131134E-07  0.584E-04    3.29      14.6  T
   6   -249.1863101 -0.181443E-07  0.248E-04    3.29      34.3  T
     SCC iter.                  ...        0 min,  0.226 sec
     gradient                   ...        0 min,  0.033 sec
 * total energy  :  -247.1379373 Eh     change       -0.3237184E-03 Eh
   gradient norm :     0.0053777 Eh/α   predicted    -0.2479759E-03 ( -23.40%)
   displ. norm   :     0.2795417 α      lambda       -0.2904035E-03
   maximum displ.:     0.1393161 α      in ANC's #6, #17, #18, ...

........................................................................
.............................. CYCLE   10 ..............................
........................................................................
   1   -249.1860281 -0.249186E+03  0.333E-02    3.30       0.0  T
   2   -249.1860304 -0.229826E-05  0.200E-02    3.30       1.0  T
   3   -249.1860307 -0.264727E-06  0.236E-03    3.30       3.6  T
   4   -249.1860310 -0.319119E-06  0.988E-04    3.30       8.6  T
   5   -249.1860310 -0.977954E-08  0.447E-04    3.30      19.1  T
     SCC iter.                  ...        0 min,  0.189 sec
     gradient                   ...        0 min,  0.033 sec
 * total energy  :  -247.1381490 Eh     change       -0.2116836E-03 Eh
   gradient norm :     0.0053895 Eh/α   predicted    -0.1565520E-03 ( -26.04%)
   displ. norm   :     0.2821235 α      lambda       -0.2602809E-03
   maximum displ.:     0.1526879 α      in ANC's #6, #11, #17, ...

........................................................................
.............................. CYCLE   11 ..............................
........................................................................
   1   -249.1870694 -0.249187E+03  0.323E-02    3.31       0.0  T
   2   -249.1870714 -0.192058E-05  0.193E-02    3.31       1.0  T
   3   -249.1870714 -0.462981E-07  0.238E-03    3.31       3.6  T
   4   -249.1870718 -0.419794E-06  0.977E-04    3.31       8.7  T
   5   -249.1870718 -0.173450E-07  0.526E-04    3.31      16.2  T
     SCC iter.                  ...        0 min,  0.167 sec
     gradient                   ...        0 min,  0.034 sec
 * total energy  :  -247.1382985 Eh     change       -0.1494379E-03 Eh
   gradient norm :     0.0067554 Eh/α   predicted    -0.1405139E-03 (  -5.97%)
   displ. norm   :     0.2854692 α      lambda       -0.2438366E-03
   maximum displ.:     0.1502653 α      in ANC's #6, #11, #1, ...

........................................................................
.............................. CYCLE   12 ..............................
........................................................................
   1   -249.1851443 -0.249185E+03  0.333E-02    3.32       0.0  T
   2   -249.1851467 -0.241171E-05  0.199E-02    3.32       1.0  T
   3   -249.1851469 -0.209914E-06  0.262E-03    3.32       3.2  T
   4   -249.1851473 -0.420771E-06  0.115E-03    3.32       7.4  T
   5   -249.1851473 -0.406675E-07  0.563E-04    3.32      15.1  T
   6   -249.1851474 -0.152784E-07  0.258E-04    3.32      32.9  T
     SCC iter.                  ...        0 min,  0.206 sec
     gradient                   ...        0 min,  0.034 sec
 * total energy  :  -247.1384178 Eh     change       -0.1192846E-03 Eh
   gradient norm :     0.0073972 Eh/α   predicted    -0.1318543E-03 (  10.54%)
   displ. norm   :     0.1127157 α      lambda       -0.1179993E-03
   maximum displ.:     0.0582945 α      in ANC's #6, #1, #11, ...

........................................................................
.............................. CYCLE   13 ..............................
........................................................................
   1   -249.1863955 -0.249186E+03  0.117E-02    3.32       0.0  T
   2   -249.1863958 -0.307471E-06  0.700E-03    3.32       1.2  T
   3   -249.1863958  0.376991E-07  0.108E-03    3.32       7.9  T
   4   -249.1863959 -0.101742E-06  0.350E-04    3.32      24.4  T
   5   -249.1863959 -0.411728E-08  0.184E-04    3.32      46.4  T
     SCC iter.                  ...        0 min,  0.172 sec
     gradient                   ...        0 min,  0.034 sec
 * total energy  :  -247.1385129 Eh     change       -0.9517091E-04 Eh
   gradient norm :     0.0041264 Eh/α   predicted    -0.5976512E-04 ( -37.20%)
   displ. norm   :     0.2429480 α      lambda       -0.1675127E-03
   maximum displ.:     0.1227535 α      in ANC's #6, #1, #4, ...

........................................................................
.............................. CYCLE   14 ..............................
........................................................................
   1   -249.1875761 -0.249188E+03  0.233E-02    3.32       0.0  T
   2   -249.1875771 -0.105511E-05  0.140E-02    3.32       1.0  T
   3   -249.1875769  0.234808E-06  0.220E-03    3.32       3.9  T
   4   -249.1875774 -0.480615E-06  0.660E-04    3.32      12.9  T
   5   -249.1875774 -0.157465E-07  0.351E-04    3.32      24.2  T
     SCC iter.                  ...        0 min,  0.172 sec
     gradient                   ...        0 min,  0.034 sec
 * total energy  :  -247.1386237 Eh     change       -0.1107490E-03 Eh
   gradient norm :     0.0029668 Eh/α   predicted    -0.8870311E-04 ( -19.91%)
   displ. norm   :     0.2070293 α      lambda       -0.7552498E-04
   maximum displ.:     0.1060884 α      in ANC's #6, #1, #4, ...

........................................................................
.............................. CYCLE   15 ..............................
........................................................................
   1   -249.1881134 -0.249188E+03  0.185E-02    3.33       0.0  T
   2   -249.1881139 -0.435217E-06  0.111E-02    3.33       1.0  T
   3   -249.1881138  0.322638E-07  0.128E-03    3.33       6.7  T
   4   -249.1881140 -0.151767E-06  0.456E-04    3.33      18.7  T
   5   -249.1881140 -0.465064E-08  0.234E-04    3.33      36.3  T
     SCC iter.                  ...        0 min,  0.172 sec
     gradient                   ...        0 min,  0.033 sec
 * total energy  :  -247.1386783 Eh     change       -0.5463504E-04 Eh
   gradient norm :     0.0033602 Eh/α   predicted    -0.3938535E-04 ( -27.91%)
   displ. norm   :     0.2851830 α      lambda       -0.8962725E-04
   maximum displ.:     0.1396521 α      in ANC's #6, #4, #1, ...

........................................................................
.............................. CYCLE   16 ..............................
........................................................................
   1   -249.1876918 -0.249188E+03  0.252E-02    3.33       0.0  T
   2   -249.1876925 -0.647900E-06  0.151E-02    3.33       1.0  T
   3   -249.1876925 -0.565421E-07  0.138E-03    3.33       6.2  T
   4   -249.1876927 -0.143260E-06  0.606E-04    3.33      14.1  T
   5   -249.1876927 -0.646779E-08  0.302E-04    3.33      28.2  T
     SCC iter.                  ...        0 min,  0.192 sec
     gradient                   ...        0 min,  0.039 sec
 * total energy  :  -247.1387372 Eh     change       -0.5888336E-04 Eh
   gradient norm :     0.0030598 Eh/α   predicted    -0.4845906E-04 ( -17.70%)
   displ. norm   :     0.1968845 α      lambda       -0.6333479E-04
   maximum displ.:     0.0832373 α      in ANC's #6, #4, #1, ...

........................................................................
.............................. CYCLE   17 ..............................
........................................................................
   1   -249.1878589 -0.249188E+03  0.189E-02    3.33       0.0  T
   2   -249.1878593 -0.348667E-06  0.113E-02    3.33       1.0  T
   3   -249.1878593  0.996496E-08  0.102E-03    3.33       8.3  T
   4   -249.1878594 -0.913610E-07  0.436E-04    3.33      19.5  T
   5   -249.1878594 -0.732427E-08  0.234E-04    3.33      36.4  T
     SCC iter.                  ...        0 min,  0.182 sec
     gradient                   ...        0 min,  0.034 sec
 * total energy  :  -247.1387807 Eh     change       -0.4348547E-04 Eh
   gradient norm :     0.0023304 Eh/α   predicted    -0.3289590E-04 ( -24.35%)
   displ. norm   :     0.1410196 α      lambda       -0.4168170E-04
   maximum displ.:     0.0657470 α      in ANC's #4, #2, #1, ...

........................................................................
.............................. CYCLE   18 ..............................
........................................................................
   1   -249.1878692 -0.249188E+03  0.149E-02    3.33       0.0  T
   2   -249.1878694 -0.231222E-06  0.886E-03    3.33       1.0  T
   3   -249.1878693  0.561809E-07  0.998E-04    3.33       8.5  T
   4   -249.1878694 -0.103923E-06  0.318E-04    3.33      26.8  T
     SCC iter.                  ...        0 min,  0.138 sec
     gradient                   ...        0 min,  0.034 sec
 * total energy  :  -247.1388119 Eh     change       -0.3125771E-04 Eh
   gradient norm :     0.0019747 Eh/α   predicted    -0.2125752E-04 ( -31.99%)
   displ. norm   :     0.2115527 α      lambda       -0.4082714E-04
   maximum displ.:     0.1081085 α      in ANC's #4, #2, #7, ...

........................................................................
.............................. CYCLE   19 ..............................
........................................................................
   1   -249.1876644 -0.249188E+03  0.245E-02    3.33       0.0  T
   2   -249.1876650 -0.676197E-06  0.145E-02    3.33       1.0  T
   3   -249.1876648  0.193259E-06  0.182E-03    3.34       4.7  T
   4   -249.1876652 -0.340503E-06  0.556E-04    3.33      15.3  T
   5   -249.1876652 -0.130247E-07  0.306E-04    3.33      27.8  T
     SCC iter.                  ...        0 min,  0.174 sec
     gradient                   ...        0 min,  0.034 sec
 * total energy  :  -247.1388509 Eh     change       -0.3896349E-04 Eh
   gradient norm :     0.0026014 Eh/α   predicted    -0.2082393E-04 ( -46.56%)
   displ. norm   :     0.1169684 α      lambda       -0.3431337E-04
   maximum displ.:     0.0641597 α      in ANC's #4, #2, #10, ...

........................................................................
.............................. CYCLE   20 ..............................
........................................................................
   1   -249.1877572 -0.249188E+03  0.126E-02    3.33       0.0  T
   2   -249.1877574 -0.184739E-06  0.750E-03    3.33       1.1  T
   3   -249.1877573  0.771863E-08  0.794E-04    3.34      10.7  T
   4   -249.1877574 -0.547171E-07  0.305E-04    3.34      27.9  T
     SCC iter.                  ...        0 min,  0.142 sec
     gradient                   ...        0 min,  0.036 sec
 * total energy  :  -247.1388770 Eh     change       -0.2608189E-04 Eh
   gradient norm :     0.0026044 Eh/α   predicted    -0.1739260E-04 ( -33.32%)
   displ. norm   :     0.1922209 α      lambda       -0.5777331E-04
   maximum displ.:     0.1063700 α      in ANC's #4, #2, #10, ...
 * RMSD in coord.:     0.3363729 α      energy gain  -0.6062861E-01 Eh

generating ANC from model Hessian ...
Using Lindh-Hessian (1995)
 Shifting diagonal of input Hessian by    9.8856466377693387E-003
 Lowest  eigenvalues of input Hessian
    0.000000    0.000000    0.000000    0.000000    0.000000    0.000000
    0.010000    0.010036    0.010088    0.010276    0.010294    0.010422
    0.010790    0.010997    0.011098    0.011243    0.011298    0.011369
 Highest eigenvalues
    1.877282    1.979202    2.104589    2.188201    2.283793    2.364745


........................................................................
.............................. CYCLE   21 ..............................
........................................................................
   1   -249.1876846 -0.249188E+03  0.195E-02    3.34       0.0  T
   2   -249.1876851 -0.485829E-06  0.117E-02    3.34       1.0  T
   3   -249.1876851  0.847319E-08  0.122E-03    3.34       7.0  T
   4   -249.1876852 -0.124740E-06  0.498E-04    3.34      17.1  T
   5   -249.1876852 -0.645434E-08  0.260E-04    3.34      32.7  T
     SCC iter.                  ...        0 min,  0.186 sec
     gradient                   ...        0 min,  0.036 sec
 * total energy  :  -247.1389216 Eh     change       -0.4462628E-04 Eh
   gradient norm :     0.0021777 Eh/α   predicted     0.0000000E+00 (-100.00%)
   displ. norm   :     0.0315093 α      lambda       -0.1808371E-04
   maximum displ.:     0.0157239 α      in ANC's #4, #6, #2, ...

........................................................................
.............................. CYCLE   22 ..............................
........................................................................
   1   -249.1878921 -0.249188E+03  0.314E-03    3.34       0.0  T
   2   -249.1878921 -0.629249E-07  0.187E-03    3.34       4.6  T
   3   -249.1878921  0.902813E-08  0.564E-04    3.33      15.1  T
   4   -249.1878922 -0.174930E-07  0.154E-04    3.34      55.2  T
     SCC iter.                  ...        0 min,  0.152 sec
     gradient                   ...        0 min,  0.038 sec
 * total energy  :  -247.1389382 Eh     change       -0.1664309E-04 Eh
   gradient norm :     0.0011173 Eh/α   predicted    -0.9549541E-05 ( -42.62%)
   displ. norm   :     0.1782217 α      lambda       -0.5108080E-04
   maximum displ.:     0.0903599 α      in ANC's #4, #6, #2, ...

........................................................................
.............................. CYCLE   23 ..............................
........................................................................
   1   -249.1880873 -0.249188E+03  0.157E-02    3.33       0.0  T
   2   -249.1880885 -0.119219E-05  0.936E-03    3.33       1.0  T
   3   -249.1880883  0.204730E-06  0.246E-03    3.33       3.5  T
   4   -249.1880887 -0.391421E-06  0.681E-04    3.33      12.5  T
   5   -249.1880887 -0.304898E-07  0.338E-04    3.33      25.2  T
     SCC iter.                  ...        0 min,  0.197 sec
     gradient                   ...        0 min,  0.038 sec
 * total energy  :  -247.1389754 Eh     change       -0.3718546E-04 Eh
   gradient norm :     0.0029793 Eh/α   predicted    -0.2590106E-04 ( -30.35%)
   displ. norm   :     0.0386693 α      lambda       -0.1394997E-04
   maximum displ.:     0.0217191 α      in ANC's #4, #6, #2, ...

........................................................................
.............................. CYCLE   24 ..............................
........................................................................
   1   -249.1880117 -0.249188E+03  0.296E-03    3.33       0.0  T
   2   -249.1880117 -0.195660E-07  0.178E-03    3.33       4.8  T
   3   -249.1880117  0.980833E-09  0.276E-04    3.33      30.9  T
   4   -249.1880117 -0.568323E-08  0.989E-05    3.33      86.1  T
     SCC iter.                  ...        0 min,  0.162 sec
     gradient                   ...        0 min,  0.038 sec
 * total energy  :  -247.1389885 Eh     change       -0.1304057E-04 Eh
   gradient norm :     0.0022416 Eh/α   predicted    -0.6985835E-05 ( -46.43%)
   displ. norm   :     0.1745966 α      lambda       -0.5720193E-04
   maximum displ.:     0.0937187 α      in ANC's #4, #6, #2, ...

........................................................................
.............................. CYCLE   25 ..............................
........................................................................
   1   -249.1876921 -0.249188E+03  0.130E-02    3.33       0.0  T
   2   -249.1876924 -0.375268E-06  0.782E-03    3.33       1.1  T
   3   -249.1876924  0.211909E-07  0.116E-03    3.33       7.3  T
   4   -249.1876925 -0.106834E-06  0.406E-04    3.33      21.0  T
   5   -249.1876925 -0.264265E-08  0.218E-04    3.33      39.1  T
     SCC iter.                  ...        0 min,  0.196 sec
     gradient                   ...        0 min,  0.042 sec
 * total energy  :  -247.1390309 Eh     change       -0.4240637E-04 Eh
   gradient norm :     0.0012935 Eh/α   predicted    -0.2947307E-04 ( -30.50%)
   displ. norm   :     0.3084515 α      lambda       -0.3804650E-04
   maximum displ.:     0.1657957 α      in ANC's #4, #6, #2, ...

........................................................................
.............................. CYCLE   26 ..............................
........................................................................
   1   -249.1871504 -0.249187E+03  0.213E-02    3.33       0.0  T
   2   -249.1871511 -0.674335E-06  0.127E-02    3.33       1.0  T
   3   -249.1871510  0.139152E-07  0.156E-03    3.33       5.4  T
   4   -249.1871512 -0.203995E-06  0.623E-04    3.33      13.7  T
   5   -249.1871512 -0.413320E-08  0.323E-04    3.33      26.4  T
     SCC iter.                  ...        0 min,  0.186 sec
     gradient                   ...        0 min,  0.037 sec
 * total energy  :  -247.1390700 Eh     change       -0.3912811E-04 Eh
   gradient norm :     0.0038631 Eh/α   predicted    -0.1983194E-04 ( -49.32%)
   displ. norm   :     0.1629856 α      lambda       -0.3181746E-04
   maximum displ.:     0.0875463 α      in ANC's #4, #6, #2, ...

........................................................................
.............................. CYCLE   27 ..............................
........................................................................
   1   -249.1872109 -0.249187E+03  0.107E-02    3.32       0.0  T
   2   -249.1872110 -0.130818E-06  0.635E-03    3.32       1.3  T
   3   -249.1872110 -0.853711E-08  0.645E-04    3.32      13.2  T
   4   -249.1872110 -0.287696E-07  0.283E-04    3.32      30.1  T
     SCC iter.                  ...        0 min,  0.146 sec
     gradient                   ...        0 min,  0.036 sec
 * total energy  :  -247.1391004 Eh     change       -0.3042838E-04 Eh
   gradient norm :     0.0035260 Eh/α   predicted    -0.1633506E-04 ( -46.32%)
   displ. norm   :     0.3942272 α      lambda       -0.9490105E-04
   maximum displ.:     0.2096815 α      in ANC's #4, #6, #2, ...

........................................................................
.............................. CYCLE   28 ..............................
........................................................................
   1   -249.1874794 -0.249187E+03  0.268E-02    3.32       0.0  T
   2   -249.1874801 -0.741575E-06  0.159E-02    3.32       1.0  T
   3   -249.1874801 -0.178645E-07  0.153E-03    3.32       5.6  T
   4   -249.1874803 -0.175012E-06  0.669E-04    3.32      12.7  T
   5   -249.1874803 -0.102393E-07  0.347E-04    3.32      24.5  T
     SCC iter.                  ...        0 min,  0.182 sec
     gradient                   ...        0 min,  0.039 sec
 * total energy  :  -247.1391855 Eh     change       -0.8507214E-04 Eh
   gradient norm :     0.0017960 Eh/α   predicted    -0.5482534E-04 ( -35.55%)
   displ. norm   :     0.9236660 α      lambda       -0.1306853E-03
   maximum displ.:     0.4904957 α      in ANC's #4, #6, #2, ...

........................................................................
.............................. CYCLE   29 ..............................
........................................................................
   1   -249.1863835 -0.249186E+03  0.646E-02    3.31       0.0  T
   2   -249.1863873 -0.384040E-05  0.384E-02    3.30       1.0  T
   3   -249.1863876 -0.269348E-06  0.335E-03    3.30       2.5  T
   4   -249.1863883 -0.754049E-06  0.147E-03    3.30       5.8  T
   5   -249.1863884 -0.339290E-07  0.715E-04    3.30      11.9  T
   6   -249.1863884 -0.182845E-07  0.257E-04    3.30      33.1  T
     SCC iter.                  ...        0 min,  0.220 sec
     gradient                   ...        0 min,  0.037 sec
 * total energy  :  -247.1393390 Eh     change       -0.1534963E-03 Eh
   gradient norm :     0.0033488 Eh/α   predicted    -0.9012433E-04 ( -41.29%)
   displ. norm   :     0.5240877 α      lambda       -0.9237457E-04
   maximum displ.:     0.2804239 α      in ANC's #4, #2, #6, ...

........................................................................
.............................. CYCLE   30 ..............................
........................................................................
   1   -249.1861221 -0.249186E+03  0.370E-02    3.30       0.0  T
   2   -249.1861232 -0.101820E-05  0.220E-02    3.30       1.0  T
   3   -249.1861232 -0.885869E-07  0.175E-03    3.30       4.9  T
   4   -249.1861235 -0.219806E-06  0.826E-04    3.30      10.3  T
   5   -249.1861235 -0.106280E-07  0.406E-04    3.30      21.0  T
     SCC iter.                  ...        0 min,  0.187 sec
     gradient                   ...        0 min,  0.038 sec
 * total energy  :  -247.1394235 Eh     change       -0.8453698E-04 Eh
   gradient norm :     0.0035383 Eh/α   predicted    -0.5887380E-04 ( -30.36%)
   displ. norm   :     0.5979783 α      lambda       -0.1272090E-03
   maximum displ.:     0.3207856 α      in ANC's #4, #2, #6, ...

........................................................................
.............................. CYCLE   31 ..............................
........................................................................
   1   -249.1867007 -0.249187E+03  0.435E-02    3.30       0.0  T
   2   -249.1867019 -0.127192E-05  0.258E-02    3.30       1.0  T
   3   -249.1867021 -0.168477E-06  0.190E-03    3.29       4.5  T
   4   -249.1867023 -0.240903E-06  0.912E-04    3.30       9.3  T
   5   -249.1867023 -0.785499E-08  0.405E-04    3.30      21.0  T
     SCC iter.                  ...        0 min,  0.202 sec
     gradient                   ...        0 min,  0.038 sec
 * total energy  :  -247.1395393 Eh     change       -0.1157215E-03 Eh
   gradient norm :     0.0028840 Eh/α   predicted    -0.8634914E-04 ( -25.38%)
   displ. norm   :     0.6638095 α      lambda       -0.1527992E-03
   maximum displ.:     0.3580226 α      in ANC's #4, #2, #6, ...

........................................................................
.............................. CYCLE   32 ..............................
........................................................................
   1   -249.1870756 -0.249187E+03  0.491E-02    3.30       0.0  T
   2   -249.1870772 -0.160172E-05  0.292E-02    3.30       1.0  T
   3   -249.1870774 -0.212152E-06  0.213E-03    3.30       4.0  T
   4   -249.1870777 -0.309565E-06  0.102E-03    3.30       8.3  T
   5   -249.1870777 -0.649240E-08  0.453E-04    3.30      18.8  T
   6   -249.1870777 -0.105631E-07  0.169E-04    3.30      50.4  T
     SCC iter.                  ...        0 min,  0.232 sec
     gradient                   ...        0 min,  0.039 sec
 * total energy  :  -247.1396751 Eh     change       -0.1357922E-03 Eh
   gradient norm :     0.0021436 Eh/α   predicted    -0.1100659E-03 ( -18.95%)
   displ. norm   :     0.6770773 α      lambda       -0.1512169E-03
   maximum displ.:     0.3679805 α      in ANC's #4, #2, #6, ...

........................................................................
.............................. CYCLE   33 ..............................
........................................................................
   1   -249.1869406 -0.249187E+03  0.498E-02    3.30       0.0  T
   2   -249.1869423 -0.170725E-05  0.296E-02    3.30       1.0  T
   3   -249.1869425 -0.184336E-06  0.224E-03    3.30       3.8  T
   4   -249.1869429 -0.354817E-06  0.106E-03    3.30       8.0  T
   5   -249.1869429 -0.816399E-08  0.517E-04    3.30      16.5  T
   6   -249.1869429 -0.163679E-07  0.173E-04    3.30      49.1  T
     SCC iter.                  ...        0 min,  0.222 sec
     gradient                   ...        0 min,  0.038 sec
 * total energy  :  -247.1398072 Eh     change       -0.1321376E-03 Eh
   gradient norm :     0.0026334 Eh/α   predicted    -0.1102715E-03 ( -16.55%)
   displ. norm   :     0.6446261 α      lambda       -0.1371716E-03
   maximum displ.:     0.3537971 α      in ANC's #4, #2, #6, ...

........................................................................
.............................. CYCLE   34 ..............................
........................................................................
   1   -249.1866741 -0.249187E+03  0.463E-02    3.30       0.0  T
   2   -249.1866757 -0.162538E-05  0.275E-02    3.30       1.0  T
   3   -249.1866758 -0.105021E-06  0.224E-03    3.31       3.8  T
   4   -249.1866762 -0.374922E-06  0.102E-03    3.31       8.3  T
   5   -249.1866762 -0.124153E-07  0.525E-04    3.31      16.2  T
   6   -249.1866762 -0.159287E-07  0.171E-04    3.31      49.8  T
     SCC iter.                  ...        0 min,  0.215 sec
     gradient                   ...        0 min,  0.038 sec
 * total energy  :  -247.1399289 Eh     change       -0.1217334E-03 Eh
   gradient norm :     0.0033009 Eh/α   predicted    -0.9708856E-04 ( -20.24%)
   displ. norm   :     0.6316016 α      lambda       -0.1398771E-03
   maximum displ.:     0.3501417 α      in ANC's #4, #2, #1, ...

........................................................................
.............................. CYCLE   35 ..............................
........................................................................
   1   -249.1866307 -0.249187E+03  0.439E-02    3.31       0.0  T
   2   -249.1866324 -0.170278E-05  0.261E-02    3.31       1.0  T
   3   -249.1866324  0.486293E-07  0.246E-03    3.31       3.5  T
   4   -249.1866329 -0.514358E-06  0.101E-03    3.31       8.4  T
   5   -249.1866329 -0.197105E-07  0.537E-04    3.31      15.8  T
   6   -249.1866329 -0.140623E-07  0.179E-04    3.31      47.4  T
     SCC iter.                  ...        0 min,  0.217 sec
     gradient                   ...        0 min,  0.039 sec
 * total energy  :  -247.1400563 Eh     change       -0.1273520E-03 Eh
   gradient norm :     0.0032660 Eh/α   predicted    -0.9784369E-04 ( -23.17%)
   displ. norm   :     0.6572269 α      lambda       -0.1613858E-03
   maximum displ.:     0.3676349 α      in ANC's #4, #2, #1, ...

........................................................................
.............................. CYCLE   36 ..............................
........................................................................
   1   -249.1869367 -0.249187E+03  0.447E-02    3.32       0.0  T
   2   -249.1869388 -0.208601E-05  0.265E-02    3.32       1.0  T
   3   -249.1869385  0.283667E-06  0.297E-03    3.33       2.9  T
   4   -249.1869393 -0.837016E-06  0.109E-03    3.33       7.8  T
   5   -249.1869394 -0.267890E-07  0.577E-04    3.33      14.8  T
   6   -249.1869394 -0.136687E-07  0.202E-04    3.33      42.1  T
     SCC iter.                  ...        0 min,  0.226 sec
     gradient                   ...        0 min,  0.038 sec
 * total energy  :  -247.1402049 Eh     change       -0.1486552E-03 Eh
   gradient norm :     0.0029403 Eh/α   predicted    -0.1155494E-03 ( -22.27%)
   displ. norm   :     0.7129770 α      lambda       -0.1905023E-03
   maximum displ.:     0.4015877 α      in ANC's #4, #2, #1, ...

........................................................................
.............................. CYCLE   37 ..............................
........................................................................
   1   -249.1872330 -0.249187E+03  0.480E-02    3.34       0.0  T
   2   -249.1872356 -0.260131E-05  0.285E-02    3.34       1.0  T
   3   -249.1872351  0.467845E-06  0.346E-03    3.34       2.5  T
   4   -249.1872363 -0.119273E-05  0.122E-03    3.34       7.0  T
   5   -249.1872364 -0.314851E-07  0.638E-04    3.34      13.4  T
   6   -249.1872364 -0.164609E-07  0.230E-04    3.34      37.0  T
     SCC iter.                  ...        0 min,  0.232 sec
     gradient                   ...        0 min,  0.038 sec
 * total energy  :  -247.1403821 Eh     change       -0.1771957E-03 Eh
   gradient norm :     0.0029638 Eh/α   predicted    -0.1436737E-03 ( -18.92%)
   displ. norm   :     0.7504824 α      lambda       -0.2187782E-03
   maximum displ.:     0.4240053 α      in ANC's #4, #2, #1, ...

........................................................................
.............................. CYCLE   38 ..............................
........................................................................
   1   -249.1880225 -0.249188E+03  0.507E-02    3.35       0.0  T
   2   -249.1880255 -0.304010E-05  0.302E-02    3.35       1.0  T
   3   -249.1880250  0.543167E-06  0.378E-03    3.36       2.3  T
   4   -249.1880264 -0.144939E-05  0.134E-03    3.35       6.3  T
   5   -249.1880265 -0.343262E-07  0.686E-04    3.35      12.4  T
   6   -249.1880265 -0.199726E-07  0.251E-04    3.35      33.9  T
     SCC iter.                  ...        0 min,  0.238 sec
     gradient                   ...        0 min,  0.042 sec
 * total energy  :  -247.1405844 Eh     change       -0.2023151E-03 Eh
   gradient norm :     0.0031212 Eh/α   predicted    -0.1710045E-03 ( -15.48%)
   displ. norm   :     0.8045208 α      lambda       -0.2349974E-03
   maximum displ.:     0.4564848 α      in ANC's #4, #2, #1, ...

........................................................................
.............................. CYCLE   39 ..............................
........................................................................
   1   -249.1874027 -0.249187E+03  0.548E-02    3.37       0.0  T
   2   -249.1874057 -0.298754E-05  0.327E-02    3.37       1.0  T
   3   -249.1874056  0.878126E-07  0.340E-03    3.37       2.5  T
   4   -249.1874066 -0.106004E-05  0.143E-03    3.37       5.9  T
   5   -249.1874067 -0.411291E-07  0.705E-04    3.37      12.1  T
   6   -249.1874067 -0.256653E-07  0.258E-04    3.37      33.0  T
     SCC iter.                  ...        0 min,  0.212 sec
     gradient                   ...        0 min,  0.035 sec
 * total energy  :  -247.1408027 Eh     change       -0.2182652E-03 Eh
   gradient norm :     0.0037854 Eh/α   predicted    -0.1935540E-03 ( -11.32%)
   displ. norm   :     0.7752473 α      lambda       -0.2605218E-03
   maximum displ.:     0.4341171 α      in ANC's #4, #2, #1, ...

........................................................................
.............................. CYCLE   40 ..............................
........................................................................
   1   -249.1907804 -0.249191E+03  0.542E-02    3.38       0.0  T
   2   -249.1907840 -0.364250E-05  0.325E-02    3.38       1.0  T
   3   -249.1907835  0.496652E-06  0.399E-03    3.39       2.1  T
   4   -249.1907852 -0.168555E-05  0.153E-03    3.38       5.6  T
   5   -249.1907853 -0.490048E-07  0.747E-04    3.38      11.4  T
   6   -249.1907853 -0.235935E-07  0.273E-04    3.38      31.1  T
     SCC iter.                  ...        0 min,  0.215 sec
     gradient                   ...        0 min,  0.037 sec
 * total energy  :  -247.1410201 Eh     change       -0.2174052E-03 Eh
   gradient norm :     0.0042932 Eh/α   predicted    -0.2085504E-03 (  -4.07%)
   displ. norm   :     0.8708153 α      lambda       -0.2677966E-03
   maximum displ.:     0.4994663 α      in ANC's #4, #2, #5, ...

........................................................................
.............................. CYCLE   41 ..............................
........................................................................
   1   -249.1860507 -0.249186E+03  0.606E-02    3.39       0.0  T
   2   -249.1860537 -0.297372E-05  0.362E-02    3.39       1.0  T
   3   -249.1860542 -0.465370E-06  0.292E-03    3.39       2.9  T
   4   -249.1860547 -0.552747E-06  0.149E-03    3.39       5.7  T
   5   -249.1860548 -0.560082E-07  0.709E-04    3.39      12.0  T
   6   -249.1860548 -0.238591E-07  0.255E-04    3.39      33.4  T
     SCC iter.                  ...        0 min,  0.220 sec
     gradient                   ...        0 min,  0.039 sec
 * total energy  :  -247.1412510 Eh     change       -0.2308389E-03 Eh
   gradient norm :     0.0053983 Eh/α   predicted    -0.2354438E-03 (   1.99%)
   displ. norm   :     0.7052941 α      lambda       -0.2597535E-03
   maximum displ.:     0.4088558 α      in ANC's #4, #2, #5, ...

........................................................................
.............................. CYCLE   42 ..............................
........................................................................
   1   -249.1852244 -0.249185E+03  0.503E-02    3.39       0.0  T
   2   -249.1852264 -0.206945E-05  0.301E-02    3.39       1.0  T
   3   -249.1852267 -0.282474E-06  0.255E-03    3.39       3.3  T
   4   -249.1852272 -0.484763E-06  0.125E-03    3.39       6.8  T
   5   -249.1852272 -0.264201E-07  0.590E-04    3.39      14.4  T
   6   -249.1852272 -0.198165E-07  0.205E-04    3.39      41.6  T
     SCC iter.                  ...        0 min,  0.228 sec
     gradient                   ...        0 min,  0.039 sec
 * total energy  :  -247.1414794 Eh     change       -0.2284048E-03 Eh
   gradient norm :     0.0068570 Eh/α   predicted    -0.1944940E-03 ( -14.85%)
   displ. norm   :     0.6441199 α      lambda       -0.3471648E-03
   maximum displ.:     0.3762069 α      in ANC's #4, #2, #6, ...
 * RMSD in coord.:     0.9673240 α      energy gain  -0.2602380E-02 Eh

generating ANC from model Hessian ...
Using Lindh-Hessian (1995)
 Shifting diagonal of input Hessian by    9.8850926211276318E-003
 Lowest  eigenvalues of input Hessian
    0.000000    0.000000    0.000000    0.000000    0.000000    0.000000
    0.010000    0.010090    0.010153    0.010284    0.010306    0.010597
    0.010777    0.011037    0.011159    0.011213    0.011272    0.011515
 Highest eigenvalues
    1.879808    1.979563    2.101932    2.189493    2.290011    2.370821


........................................................................
.............................. CYCLE   43 ..............................
........................................................................
   1   -249.1875933 -0.249188E+03  0.494E-02    3.39       0.0  T
   2   -249.1875954 -0.203863E-05  0.295E-02    3.40       1.0  T
   3   -249.1875953  0.645701E-07  0.275E-03    3.40       3.1  T
   4   -249.1875961 -0.741694E-06  0.118E-03    3.40       7.2  T
   5   -249.1875961 -0.240301E-07  0.619E-04    3.40      13.7  T
   6   -249.1875961 -0.207961E-07  0.182E-04    3.40      46.9  T
     SCC iter.                  ...        0 min,  0.222 sec
     gradient                   ...        0 min,  0.038 sec
 * total energy  :  -247.1417564 Eh     change       -0.2770748E-03 Eh
   gradient norm :     0.0064375 Eh/α   predicted     0.0000000E+00 (-100.00%)
   displ. norm   :     0.0674979 α      lambda       -0.1266359E-03
   maximum displ.:     0.0294495 α      in ANC's #4, #12, #10, ...

........................................................................
.............................. CYCLE   44 ..............................
........................................................................
   1   -249.1903398 -0.249190E+03  0.984E-03    3.40       0.0  T
   2   -249.1903402 -0.337305E-06  0.587E-03    3.40       1.5  T
   3   -249.1903401  0.655017E-07  0.121E-03    3.40       7.0  T
   4   -249.1903402 -0.123472E-06  0.351E-04    3.40      24.2  T
   5   -249.1903402 -0.695053E-08  0.193E-04    3.40      44.0  T
     SCC iter.                  ...        0 min,  0.200 sec
     gradient                   ...        0 min,  0.039 sec
 * total energy  :  -247.1418576 Eh     change       -0.1011546E-03 Eh
   gradient norm :     0.0028635 Eh/α   predicted    -0.6371494E-04 ( -37.01%)
   displ. norm   :     0.1818871 α      lambda       -0.1861283E-03
   maximum displ.:     0.0839934 α      in ANC's #4, #12, #10, ...

........................................................................
.............................. CYCLE   45 ..............................
........................................................................
   1   -249.1933920 -0.249193E+03  0.206E-02    3.41       0.0  T
   2   -249.1933931 -0.106329E-05  0.123E-02    3.41       1.0  T
   3   -249.1933930  0.122128E-06  0.205E-03    3.41       4.1  T
   4   -249.1933933 -0.350747E-06  0.682E-04    3.41      12.5  T
   5   -249.1933933 -0.125128E-07  0.380E-04    3.41      22.4  T
     SCC iter.                  ...        0 min,  0.202 sec
     gradient                   ...        0 min,  0.037 sec
 * total energy  :  -247.1419872 Eh     change       -0.1295817E-03 Eh
   gradient norm :     0.0036156 Eh/α   predicted    -0.9614368E-04 ( -25.80%)
   displ. norm   :     0.2122026 α      lambda       -0.1275689E-03
   maximum displ.:     0.1021327 α      in ANC's #4, #12, #10, ...

........................................................................
.............................. CYCLE   46 ..............................
........................................................................
   1   -249.1940025 -0.249194E+03  0.214E-02    3.41       0.0  T
   2   -249.1940031 -0.638050E-06  0.128E-02    3.41       1.0  T
   3   -249.1940032 -0.346508E-07  0.143E-03    3.41       5.9  T
   4   -249.1940033 -0.152521E-06  0.619E-04    3.41      13.7  T
   5   -249.1940033 -0.479619E-08  0.309E-04    3.41      27.6  T
     SCC iter.                  ...        0 min,  0.206 sec
     gradient                   ...        0 min,  0.038 sec
 * total energy  :  -247.1420934 Eh     change       -0.1062646E-03 Eh
   gradient norm :     0.0054987 Eh/α   predicted    -0.6677408E-04 ( -37.16%)
   displ. norm   :     0.4088782 α      lambda       -0.2296890E-03
   maximum displ.:     0.1979087 α      in ANC's #4, #12, #10, ...

........................................................................
.............................. CYCLE   47 ..............................
........................................................................
   1   -249.1927826 -0.249193E+03  0.383E-02    3.41       0.0  T
   2   -249.1927841 -0.147996E-05  0.229E-02    3.41       1.0  T
   3   -249.1927844 -0.314063E-06  0.200E-03    3.41       4.2  T
   4   -249.1927846 -0.222409E-06  0.102E-03    3.41       8.4  T
   5   -249.1927846 -0.898208E-08  0.441E-04    3.41      19.3  T
   6   -249.1927846 -0.106260E-07  0.168E-04    3.41      50.6  T
     SCC iter.                  ...        0 min,  0.235 sec
     gradient                   ...        0 min,  0.038 sec
 * total energy  :  -247.1422855 Eh     change       -0.1920617E-03 Eh
   gradient norm :     0.0059269 Eh/α   predicted    -0.1340453E-03 ( -30.21%)
   displ. norm   :     0.5152605 α      lambda       -0.2796697E-03
   maximum displ.:     0.2584961 α      in ANC's #4, #12, #10, ...

........................................................................
.............................. CYCLE   48 ..............................
........................................................................
   1   -249.1900427 -0.249190E+03  0.449E-02    3.42       0.0  T
   2   -249.1900445 -0.183760E-05  0.269E-02    3.42       1.0  T
   3   -249.1900450 -0.505225E-06  0.217E-03    3.42       3.9  T
   4   -249.1900452 -0.228051E-06  0.113E-03    3.42       7.5  T
   5   -249.1900452 -0.668413E-08  0.386E-04    3.42      22.1  T
   6   -249.1900452 -0.742688E-08  0.168E-04    3.42      50.7  T
     SCC iter.                  ...        0 min,  0.243 sec
     gradient                   ...        0 min,  0.042 sec
 * total energy  :  -247.1425195 Eh     change       -0.2340340E-03 Eh
   gradient norm :     0.0055493 Eh/α   predicted    -0.1769636E-03 ( -24.39%)
   displ. norm   :     0.5128134 α      lambda       -0.3068865E-03
   maximum displ.:     0.2695251 α      in ANC's #4, #12, #10, ...

........................................................................
.............................. CYCLE   49 ..............................
........................................................................
   1   -249.1876108 -0.249188E+03  0.413E-02    3.42       0.0  T
   2   -249.1876126 -0.180474E-05  0.248E-02    3.41       1.0  T
   3   -249.1876130 -0.333492E-06  0.232E-03    3.41       3.7  T
   4   -249.1876133 -0.351096E-06  0.107E-03    3.41       8.0  T
   5   -249.1876133 -0.321788E-08  0.448E-04    3.41      19.0  T
   6   -249.1876133 -0.100141E-07  0.160E-04    3.41      53.3  T
     SCC iter.                  ...        0 min,  0.234 sec
     gradient                   ...        0 min,  0.038 sec
 * total energy  :  -247.1427781 Eh     change       -0.2585912E-03 Eh
   gradient norm :     0.0066726 Eh/α   predicted    -0.1938018E-03 ( -25.05%)
   displ. norm   :     0.4886695 α      lambda       -0.3896887E-03
   maximum displ.:     0.2724032 α      in ANC's #4, #12, #5, ...

........................................................................
.............................. CYCLE   50 ..............................
........................................................................
   1   -249.1869177 -0.249187E+03  0.373E-02    3.41       0.0  T
   2   -249.1869199 -0.222846E-05  0.225E-02    3.41       1.0  T
   3   -249.1869199  0.271122E-07  0.295E-03    3.41       2.9  T
   4   -249.1869206 -0.724398E-06  0.111E-03    3.41       7.7  T
   5   -249.1869206 -0.203720E-07  0.638E-04    3.41      13.3  T
   6   -249.1869206 -0.174861E-07  0.207E-04    3.41      41.1  T
     SCC iter.                  ...        0 min,  0.238 sec
     gradient                   ...        0 min,  0.038 sec
 * total energy  :  -247.1431018 Eh     change       -0.3236792E-03 Eh
   gradient norm :     0.0086365 Eh/α   predicted    -0.2413731E-03 ( -25.43%)
   displ. norm   :     0.4916520 α      lambda       -0.4533947E-03
   maximum displ.:     0.2896920 α      in ANC's #4, #12, #5, ...

........................................................................
.............................. CYCLE   51 ..............................
........................................................................
   1   -249.1880474 -0.249188E+03  0.387E-02    3.42       0.0  T
   2   -249.1880504 -0.296078E-05  0.234E-02    3.42       1.0  T
   3   -249.1880501  0.337773E-06  0.361E-03    3.42       2.4  T
   4   -249.1880512 -0.118476E-05  0.130E-03    3.42       6.6  T
   5   -249.1880513 -0.634687E-07  0.712E-04    3.42      12.0  T
   6   -249.1880513 -0.180610E-07  0.253E-04    3.42      33.6  T
     SCC iter.                  ...        0 min,  0.266 sec
     gradient                   ...        0 min,  0.041 sec
 * total energy  :  -247.1434705 Eh     change       -0.3686899E-03 Eh
   gradient norm :     0.0095755 Eh/α   predicted    -0.2814961E-03 ( -23.65%)
   displ. norm   :     0.5401729 α      lambda       -0.4552504E-03
   maximum displ.:     0.3285321 α      in ANC's #4, #12, #5, ...

........................................................................
.............................. CYCLE   52 ..............................
........................................................................
   1   -249.1892721 -0.249189E+03  0.428E-02    3.42       0.0  T
   2   -249.1892754 -0.333374E-05  0.258E-02    3.42       1.0  T
   3   -249.1892750  0.486028E-06  0.382E-03    3.42       2.2  T
   4   -249.1892764 -0.145325E-05  0.143E-03    3.42       5.9  T
   5   -249.1892765 -0.963400E-07  0.770E-04    3.42      11.1  T
   6   -249.1892765 -0.188446E-07  0.249E-04    3.42      34.2  T
     SCC iter.                  ...        0 min,  0.300 sec
     gradient                   ...        0 min,  0.039 sec
 * total energy  :  -247.1438531 Eh     change       -0.3825995E-03 Eh
   gradient norm :     0.0088717 Eh/α   predicted    -0.2940439E-03 ( -23.15%)
   displ. norm   :     0.5264726 α      lambda       -0.4955898E-03
   maximum displ.:     0.3374134 α      in ANC's #4, #5, #12, ...

........................................................................
.............................. CYCLE   53 ..............................
........................................................................
   1   -249.1925584 -0.249193E+03  0.421E-02    3.43       0.0  T
   2   -249.1925624 -0.393595E-05  0.254E-02    3.43       1.0  T
   3   -249.1925618  0.565011E-06  0.403E-03    3.43       2.1  T
   4   -249.1925634 -0.158073E-05  0.148E-03    3.43       5.8  T
   5   -249.1925635 -0.102928E-06  0.788E-04    3.43      10.8  T
   6   -249.1925635 -0.255100E-07  0.245E-04    3.43      34.8  T
     SCC iter.                  ...        0 min,  0.288 sec
     gradient                   ...        0 min,  0.039 sec
 * total energy  :  -247.1442528 Eh     change       -0.3996850E-03 Eh
   gradient norm :     0.0061916 Eh/α   predicted    -0.3164797E-03 ( -20.82%)
   displ. norm   :     0.6419565 α      lambda       -0.4772048E-03
   maximum displ.:     0.4023298 α      in ANC's #4, #5, #12, ...

........................................................................
.............................. CYCLE   54 ..............................
........................................................................
   1   -249.1920856 -0.249192E+03  0.494E-02    3.44       0.0  T
   2   -249.1920898 -0.428190E-05  0.297E-02    3.44       1.0  T
   3   -249.1920896  0.287579E-06  0.398E-03    3.45       2.1  T
   4   -249.1920910 -0.147376E-05  0.158E-03    3.44       5.4  T
   5   -249.1920911 -0.100191E-06  0.857E-04    3.44       9.9  T
   6   -249.1920912 -0.317563E-07  0.272E-04    3.44      31.3  T
     SCC iter.                  ...        0 min,  0.290 sec
     gradient                   ...        0 min,  0.040 sec
 * total energy  :  -247.1446276 Eh     change       -0.3748048E-03 Eh
   gradient norm :     0.0074292 Eh/α   predicted    -0.3369367E-03 ( -10.10%)
   displ. norm   :     0.5043405 α      lambda       -0.5258669E-03
   maximum displ.:     0.3342320 α      in ANC's #4, #5, #6, ...

........................................................................
.............................. CYCLE   55 ..............................
........................................................................
   1   -249.1971649 -0.249197E+03  0.414E-02    3.45       0.0  T
   2   -249.1971702 -0.535290E-05  0.249E-02    3.45       1.0  T
   3   -249.1971694  0.837135E-06  0.486E-03    3.46       1.8  T
   4   -249.1971714 -0.201515E-05  0.156E-03    3.46       5.4  T
   5   -249.1971715 -0.792760E-07  0.846E-04    3.46      10.1  T
   6   -249.1971715 -0.398238E-07  0.306E-04    3.46      27.8  T
     SCC iter.                  ...        0 min,  0.300 sec
     gradient                   ...        0 min,  0.040 sec
 * total energy  :  -247.1449563 Eh     change       -0.3286812E-03 Eh
   gradient norm :     0.0077589 Eh/α   predicted    -0.3298136E-03 (   0.34%)
   displ. norm   :     0.5748949 α      lambda       -0.3645384E-03
   maximum displ.:     0.3700059 α      in ANC's #4, #5, #12, ...

........................................................................
.............................. CYCLE   56 ..............................
........................................................................
   1   -249.1942311 -0.249194E+03  0.407E-02    3.46       0.0  T
   2   -249.1942334 -0.228770E-05  0.245E-02    3.46       1.0  T
   3   -249.1942334 -0.504136E-07  0.295E-03    3.47       2.9  T
   4   -249.1942342 -0.758225E-06  0.135E-03    3.47       6.3  T
   5   -249.1942343 -0.622638E-07  0.692E-04    3.47      12.3  T
   6   -249.1942343 -0.203359E-07  0.225E-04    3.47      37.8  T
     SCC iter.                  ...        0 min,  0.270 sec
     gradient                   ...        0 min,  0.041 sec
 * total energy  :  -247.1452430 Eh     change       -0.2867803E-03 Eh
   gradient norm :     0.0066422 Eh/α   predicted    -0.2425227E-03 ( -15.43%)
   displ. norm   :     0.4026118 α      lambda       -0.3195789E-03
   maximum displ.:     0.2632007 α      in ANC's #4, #5, #6, ...

........................................................................
.............................. CYCLE   57 ..............................
........................................................................
   1   -249.1935059 -0.249194E+03  0.284E-02    3.47       0.0  T
   2   -249.1935074 -0.153575E-05  0.171E-02    3.47       1.0  T
   3   -249.1935071  0.341554E-06  0.276E-03    3.47       3.1  T
   4   -249.1935079 -0.779480E-06  0.989E-04    3.47       8.6  T
   5   -249.1935079 -0.400921E-07  0.552E-04    3.47      15.4  T
     SCC iter.                  ...        0 min,  0.231 sec
     gradient                   ...        0 min,  0.040 sec
 * total energy  :  -247.1455103 Eh     change       -0.2673081E-03 Eh
   gradient norm :     0.0052853 Eh/α   predicted    -0.1856947E-03 ( -30.53%)
   displ. norm   :     0.4700212 α      lambda       -0.3672935E-03
   maximum displ.:     0.3031527 α      in ANC's #4, #5, #6, ...

........................................................................
.............................. CYCLE   58 ..............................
........................................................................
   1   -249.1940497 -0.249194E+03  0.326E-02    3.48       0.0  T
   2   -249.1940516 -0.184818E-05  0.197E-02    3.48       1.0  T
   3   -249.1940509  0.685462E-06  0.318E-03    3.48       2.7  T
   4   -249.1940521 -0.118786E-05  0.104E-03    3.48       8.2  T
   5   -249.1940522 -0.539538E-07  0.566E-04    3.48      15.0  T
   6   -249.1940522 -0.115029E-07  0.173E-04    3.48      49.3  T
     SCC iter.                  ...        0 min,  0.277 sec
     gradient                   ...        0 min,  0.044 sec
 * total energy  :  -247.1458109 Eh     change       -0.3005440E-03 Eh
   gradient norm :     0.0059404 Eh/α   predicted    -0.2242196E-03 ( -25.40%)
   displ. norm   :     0.5516919 α      lambda       -0.3688557E-03
   maximum displ.:     0.3546644 α      in ANC's #4, #5, #6, ...

........................................................................
.............................. CYCLE   59 ..............................
........................................................................
   1   -249.1942367 -0.249194E+03  0.378E-02    3.49       0.0  T
   2   -249.1942391 -0.235491E-05  0.228E-02    3.49       1.0  T
   3   -249.1942379  0.112520E-05  0.381E-03    3.49       2.2  T
   4   -249.1942398 -0.190916E-05  0.129E-03    3.49       6.6  T
   5   -249.1942399 -0.725411E-07  0.679E-04    3.49      12.5  T
   6   -249.1942399 -0.157285E-07  0.225E-04    3.49      37.9  T
     SCC iter.                  ...        0 min,  0.248 sec
     gradient                   ...        0 min,  0.044 sec
 * total energy  :  -247.1461180 Eh     change       -0.3071230E-03 Eh
   gradient norm :     0.0084524 Eh/α   predicted    -0.2405619E-03 ( -21.67%)
   displ. norm   :     0.5816202 α      lambda       -0.4118226E-03
   maximum displ.:     0.3717125 α      in ANC's #4, #6, #5, ...

........................................................................
.............................. CYCLE   60 ..............................
........................................................................
   1   -249.1953762 -0.249195E+03  0.385E-02    3.50       0.0  T
   2   -249.1953781 -0.181809E-05  0.231E-02    3.50       1.0  T
   3   -249.1953765  0.154018E-05  0.378E-03    3.50       2.3  T
   4   -249.1953787 -0.214233E-05  0.110E-03    3.50       7.7  T
   5   -249.1953787 -0.637156E-07  0.555E-04    3.50      15.3  T
   6   -249.1953787 -0.686182E-08  0.192E-04    3.50      44.3  T
     SCC iter.                  ...        0 min,  0.253 sec
     gradient                   ...        0 min,  0.046 sec
 * total energy  :  -247.1464672 Eh     change       -0.3492247E-03 Eh
   gradient norm :     0.0075064 Eh/α   predicted    -0.2755676E-03 ( -21.09%)
   displ. norm   :     0.6386854 α      lambda       -0.4446779E-03
   maximum displ.:     0.4050557 α      in ANC's #4, #6, #5, ...

........................................................................
.............................. CYCLE   61 ..............................
........................................................................
   1   -249.1962803 -0.249196E+03  0.434E-02    3.51       0.0  T
   2   -249.1962831 -0.278288E-05  0.261E-02    3.51       1.0  T
   3   -249.1962809  0.222784E-05  0.466E-03    3.51       1.8  T
   4   -249.1962840 -0.314981E-05  0.138E-03    3.51       6.2  T
   5   -249.1962841 -0.102447E-06  0.712E-04    3.51      11.9  T
   6   -249.1962841 -0.110238E-07  0.239E-04    3.51      35.5  T
     SCC iter.                  ...        0 min,  0.263 sec
     gradient                   ...        0 min,  0.045 sec
 * total energy  :  -247.1468662 Eh     change       -0.3989671E-03 Eh
   gradient norm :     0.0059238 Eh/α   predicted    -0.3130359E-03 ( -21.54%)
   displ. norm   :     0.7007460 α      lambda       -0.4821087E-03
   maximum displ.:     0.4408940 α      in ANC's #4, #6, #5, ...

........................................................................
.............................. CYCLE   62 ..............................
........................................................................
   1   -249.1969983 -0.249197E+03  0.481E-02    3.52       0.0  T
   2   -249.1970017 -0.343061E-05  0.289E-02    3.52       1.0  T
   3   -249.1969988  0.293544E-05  0.533E-03    3.53       1.6  T
   4   -249.1970028 -0.406495E-05  0.151E-03    3.53       5.6  T
   5   -249.1970030 -0.124077E-06  0.797E-04    3.53      10.7  T
   6   -249.1970030 -0.148304E-07  0.265E-04    3.52      32.2  T
     SCC iter.                  ...        0 min,  0.284 sec
     gradient                   ...        0 min,  0.048 sec
 * total energy  :  -247.1472987 Eh     change       -0.4325117E-03 Eh
   gradient norm :     0.0053445 Eh/α   predicted    -0.3594271E-03 ( -16.90%)
   displ. norm   :     0.7573743 α      lambda       -0.4891640E-03
   maximum displ.:     0.4739003 α      in ANC's #4, #6, #5, ...

........................................................................
.............................. CYCLE   63 ..............................
........................................................................
   1   -249.1969331 -0.249197E+03  0.529E-02    3.53       0.0  T
   2   -249.1969370 -0.384196E-05  0.318E-02    3.54       1.0  T
   3   -249.1969332  0.380277E-05  0.595E-03    3.54       1.4  T
   4   -249.1969384 -0.520186E-05  0.163E-03    3.54       5.2  T
   5   -249.1969385 -0.126885E-06  0.874E-04    3.54       9.7  T
   6   -249.1969385 -0.182390E-07  0.283E-04    3.54      30.1  T
     SCC iter.                  ...        0 min,  0.265 sec
     gradient                   ...        0 min,  0.045 sec
 * total energy  :  -247.1477401 Eh     change       -0.4413628E-03 Eh
   gradient norm :     0.0057653 Eh/α   predicted    -0.3848806E-03 ( -12.80%)
   displ. norm   :     0.7766705 α      lambda       -0.4858995E-03
   maximum displ.:     0.4823240 α      in ANC's #4, #6, #5, ...

........................................................................
.............................. CYCLE   64 ..............................
........................................................................
   1   -249.1970761 -0.249197E+03  0.544E-02    3.55       0.0  T
   2   -249.1970800 -0.398317E-05  0.327E-02    3.55       1.0  T
   3   -249.1970756  0.443928E-05  0.630E-03    3.55       1.4  T
   4   -249.1970816 -0.595445E-05  0.166E-03    3.55       5.1  T
   5   -249.1970817 -0.127017E-06  0.895E-04    3.55       9.5  T
   6   -249.1970817 -0.174432E-07  0.289E-04    3.55      29.5  T
     SCC iter.                  ...        0 min,  0.256 sec
     gradient                   ...        0 min,  0.043 sec
 * total energy  :  -247.1481826 Eh     change       -0.4424946E-03 Eh
   gradient norm :     0.0062171 Eh/α   predicted    -0.3895049E-03 ( -11.98%)
   displ. norm   :     0.7931992 α      lambda       -0.5014995E-03
   maximum displ.:     0.4940717 α      in ANC's #4, #6, #5, ...

........................................................................
.............................. CYCLE   65 ..............................
........................................................................
   1   -249.1972036 -0.249197E+03  0.555E-02    3.56       0.0  T
   2   -249.1972078 -0.421803E-05  0.333E-02    3.56       1.0  T
   3   -249.1972028  0.502046E-05  0.659E-03    3.56       1.3  T
   4   -249.1972095 -0.664435E-05  0.169E-03    3.56       5.0  T
   5   -249.1972096 -0.132971E-06  0.910E-04    3.56       9.4  T
   6   -249.1972096 -0.159845E-07  0.298E-04    3.56      28.6  T
     SCC iter.                  ...        0 min,  0.371 sec
     gradient                   ...        0 min,  0.050 sec
 * total energy  :  -247.1486448 Eh     change       -0.4621929E-03 Eh
   gradient norm :     0.0058124 Eh/α   predicted    -0.4085175E-03 ( -11.61%)
   displ. norm   :     0.8031831 α      lambda       -0.5518185E-03
   maximum displ.:     0.4922509 α      in ANC's #4, #6, #5, ...

........................................................................
.............................. CYCLE   66 ..............................
........................................................................
   1   -249.1993090 -0.249199E+03  0.557E-02    3.57       0.0  T
   2   -249.1993137 -0.465191E-05  0.334E-02    3.57       1.0  T
   3   -249.1993085  0.513239E-05  0.671E-03    3.57       1.3  T
   4   -249.1993153 -0.678671E-05  0.174E-03    3.57       4.9  T
   5   -249.1993155 -0.155344E-06  0.920E-04    3.57       9.2  T
   6   -249.1993155 -0.157968E-07  0.318E-04    3.57      26.7  T
     SCC iter.                  ...        0 min,  0.252 sec
     gradient                   ...        0 min,  0.041 sec
 * total energy  :  -247.1491512 Eh     change       -0.5064145E-03 Eh
   gradient norm :     0.0064722 Eh/α   predicted    -0.4539026E-03 ( -10.37%)
   displ. norm   :     0.8289547 α      lambda       -0.6060847E-03
   maximum displ.:     0.5097113 α      in ANC's #4, #6, #5, ...
 * RMSD in coord.:     0.9637637 α      energy gain  -0.7671825E-02 Eh

generating ANC from model Hessian ...
Using Lindh-Hessian (1995)
 Shifting diagonal of input Hessian by    9.8720213253962342E-003
[...]
                            53 H    0.953
    43   6 C    3.936 --    44 C    0.972    42 C    0.967    48 O    0.952
                            54 H    0.946
    44   6 C    3.958 --    49 O    1.015    43 C    0.972    55 H    0.967
                            56 H    0.967
    45   8 O    1.967 --    40 C    1.001    57 H    0.868
    46   8 O    1.953 --    41 C    1.011   127 H    0.851
    47   8 O    2.097 --    42 C    0.972    18 C    0.962
    48   8 O    2.094 --    39 C    0.989    43 C    0.952
    49   8 O    1.953 --    44 C    1.015    58 H    0.864
    50   1 H    0.996 --    39 C    0.945
    51   1 H    0.997 --    40 C    0.955
    52   1 H    0.999 --    41 C    0.953
    53   1 H    0.998 --    42 C    0.953
    54   1 H    0.998 --    43 C    0.946
    55   1 H    0.997 --    44 C    0.967
    56   1 H    0.995 --    44 C    0.967
    57   1 H    0.888 --    45 O    0.868
    58   1 H    0.895 --    49 O    0.864
    59   6 C    3.925 --    68 O    0.989    84 O    0.970    60 C    0.951
                            69 H    0.944
    60   6 C    3.963 --    65 O    1.002    61 C    0.967    70 H    0.955
                            59 C    0.951
    61   6 C    3.966 --    66 O    1.010    60 C    0.967    62 C    0.963
                            71 H    0.951
    62   6 C    3.938 --    63 C    0.963    61 C    0.963    67 O    0.959
                            72 H    0.952
    63   6 C    3.949 --    64 C    0.982    68 O    0.967    62 C    0.963
                            73 H    0.947
    64   6 C    3.950 --   121 N    0.984    63 C    0.982   123 H    0.955
                           124 H    0.949
    65   8 O    1.965 --    60 C    1.002    74 H    0.868
    66   8 O    1.955 --    61 C    1.010    75 H    0.850
    67   8 O    2.106 --    62 C    0.959    39 C    0.958
    68   8 O    2.097 --    59 C    0.989    63 C    0.967
    69   1 H    0.995 --    59 C    0.944
    70   1 H    0.998 --    60 C    0.955
    71   1 H    0.999 --    61 C    0.951
    72   1 H    0.997 --    62 C    0.952
    73   1 H    0.995 --    63 C    0.947
    74   1 H    0.888 --    65 O    0.868
    75   1 H    0.889 --    66 O    0.850
    76   6 C    3.928 --    85 O    0.991    77 C    0.962   105 O    0.962
                            87 H    0.943
    77   6 C    3.961 --    82 O    0.996    78 C    0.970    76 C    0.962
                            88 H    0.953
    78   6 C    3.963 --    83 O    1.007    77 C    0.970    79 C    0.957
                            89 H    0.951
    79   6 C    3.934 --    80 C    0.977    78 C    0.957    84 O    0.951
                            90 H    0.949
    80   6 C    3.942 --    81 C    0.978    79 C    0.977    85 O    0.957
                            91 H    0.952
    81   6 C    3.959 --    86 O    1.005    80 C    0.978    93 H    0.968
                            92 H    0.966
    82   8 O    1.966 --    77 C    0.996    94 H    0.876
    83   8 O    1.957 --    78 C    1.007    95 H    0.862
    84   8 O    2.085 --    59 C    0.970    79 C    0.951
    85   8 O    2.102 --    76 C    0.991    80 C    0.957
    86   8 O    1.950 --    81 C    1.005    96 H    0.889
    87   1 H    0.997 --    76 C    0.943
    88   1 H    0.997 --    77 C    0.953
    89   1 H    0.997 --    78 C    0.951
    90   1 H    0.994 --    79 C    0.949
    91   1 H    0.993 --    80 C    0.952
    92   1 H    0.999 --    81 C    0.966
    93   1 H    0.997 --    81 C    0.968
    94   1 H    0.893 --    82 O    0.876
    95   1 H    0.894 --    83 O    0.862
    96   1 H    0.903 --    86 O    0.889
    97   6 C    3.922 --   106 O    0.988     9 O    0.958    98 C    0.956
                           108 H    0.945
    98   6 C    3.962 --   103 O    1.001    99 C    0.969    97 C    0.956
                           109 H    0.955
    99   6 C    3.968 --   104 O    1.011    98 C    0.969   100 C    0.961
                           110 H    0.953
   100   6 C    3.946 --   105 O    0.972   101 C    0.967    99 C    0.961
                           111 H    0.953
   101   6 C    3.937 --   102 C    0.972   100 C    0.967   106 O    0.953
                           112 H    0.947
   102   6 C    3.958 --   107 O    1.015   101 C    0.972   113 H    0.968
                           114 H    0.967
   103   8 O    1.967 --    98 C    1.001   115 H    0.868
   104   8 O    1.953 --    99 C    1.011   116 H    0.851
   105   8 O    2.097 --   100 C    0.972    76 C    0.962
   106   8 O    2.094 --    97 C    0.988   101 C    0.953
   107   8 O    1.953 --   102 C    1.015   117 H    0.864
   108   1 H    0.996 --    97 C    0.945
   109   1 H    0.997 --    98 C    0.955
   110   1 H    0.999 --    99 C    0.953
   111   1 H    0.998 --   100 C    0.953
   112   1 H    0.998 --   101 C    0.947
   113   1 H    0.997 --   102 C    0.968
   114   1 H    0.995 --   102 C    0.967
   115   1 H    0.888 --   103 O    0.868
   116   1 H    0.889 --   104 O    0.851
   117   1 H    0.895 --   107 O    0.864
   118   6 C    3.948 --   129 C    1.367   119 C    1.287   120 N    1.088
   119   6 C    3.949 --   128 C    1.367   118 C    1.287   121 N    1.088
   120   7 N    3.604 --   122 C    1.262   118 C    1.088     6 C    0.984
   121   7 N    3.604 --   122 C    1.261   119 C    1.088    64 C    0.984
   122   6 C    3.972 --   130 N    1.281   120 N    1.262   121 N    1.261
   123   1 H    0.986 --    64 C    0.955
   124   1 H    0.990 --    64 C    0.949
   125   1 H    0.986 --     6 C    0.955
   126   1 H    0.990 --     6 C    0.949
   127   1 H    0.889 --    46 O    0.851
   128   6 C    3.986 --   132 C    1.464   119 C    1.367   135 H    0.962
                           129 C    0.114
   129   6 C    3.986 --   133 C    1.463   118 C    1.367   137 H    0.962
                           128 C    0.114
   130   7 N    3.365 --   122 C    1.281   131 H    0.890   138 H    0.890
   131   1 H    0.943 --   130 N    0.890
   132   6 C    3.982 --   128 C    1.464   133 C    1.409   134 H    0.968
   133   6 C    3.982 --   129 C    1.463   132 C    1.409   136 H    0.968
   134   1 H    0.995 --   132 C    0.968
   135   1 H    0.995 --   128 C    0.962
   136   1 H    0.995 --   133 C    0.968
   137   1 H    0.996 --   129 C    0.962
   138   1 H    0.943 --   130 N    0.890
 ---------------------------------------------------------------------------

Topologies differ in total number of bonds
Writing topology from bond orders to xtbtopo.mol

molecular dipole:
                 x           y           z       tot (Debye)
 q only:       61.297     -34.598     -33.241
   full:       61.491     -35.614     -33.384     199.555
molecular quadrupole (traceless):
                xx          xy          yy          xz          yz          zz
 q only:     2607.878   -3172.115   -1245.705   -3099.110    1712.907   -1362.173
  q+dip:     2589.354   -3273.497   -1206.500   -3119.553    1766.920   -1382.854
   full:     2590.175   -3272.675   -1206.914   -3123.655    1766.198   -1383.261

           -------------------------------------------------
          |                Geometry Summary                 |
           -------------------------------------------------

      molecular mass/u    :     1070.9732991
   center of mass at/Å    :       32.6100855     -19.2111824     -17.6945740
  moments of inertia/u·Å² :        0.1074338E+05   0.2336989E+05   0.2399172E+05
rotational constants/cm⁻¹ :        0.1569118E-02   0.7213399E-03   0.7026437E-03

 * 143 selected distances

     #   Z          #   Z                                           value/Å
     2   6 C        3   6 C                                       1.5352750
     3   6 C        4   6 C                                       1.5335913
     4   6 C        5   6 C                                       1.5405873
     5   6 C        6   6 C                                       1.5376574
     2   6 C        7   8 O                                       1.4016974
     3   6 C        8   8 O                                       1.4005372
     4   6 C        9   8 O                                       1.4220218
     1   6 C       10   8 O                                       1.3963409
     5   6 C       10   8 O                                       1.4209028
     1   6 C       11   1 H                                       1.0991822
     2   6 C       12   1 H                                       1.1017363
     3   6 C       13   1 H                                       1.1019049
     4   6 C       14   1 H                                       1.0979485
     5   6 C       15   1 H                                       1.0949283
     7   8 O       16   1 H                                       0.9689183
     8   8 O       17   1 H                                       0.9724525
    18   6 C       19   6 C                                       1.5273619
    19   6 C       20   6 C                                       1.5322029
    21   6 C       22   6 C                                       1.5343764
    22   6 C       23   6 C                                       1.5387664
    19   6 C       24   8 O                                       1.4069466
    20   6 C       25   8 O                                       1.4014602
     1   6 C       26   8 O                                       1.4076020
    21   6 C       26   8 O                                       1.4259734
    18   6 C       27   8 O                                       1.3909205
    22   6 C       27   8 O                                       1.4237833
    23   6 C       28   8 O                                       1.4076799
    18   6 C       29   1 H                                       1.0997662
    19   6 C       30   1 H                                       1.0974466
    20   6 C       31   1 H                                       1.0999695
    21   6 C       32   1 H                                       1.0959649
    22   6 C       33   1 H                                       1.0979710
    23   6 C       34   1 H                                       1.0970191
    23   6 C       35   1 H                                       1.0967893
    24   8 O       36   1 H                                       0.9657356
    25   8 O       37   1 H                                       0.9683076
    28   8 O       38   1 H                                       0.9635312
    39   6 C       40   6 C                                       1.5405457
    40   6 C       41   6 C                                       1.5338266
    41   6 C       42   6 C                                       1.5374382
    42   6 C       43   6 C                                       1.5314481
    43   6 C       44   6 C                                       1.5375889
    40   6 C       45   8 O                                       1.4043937
    41   6 C       46   8 O                                       1.4000764
    18   6 C       47   8 O                                       1.4088106
    42   6 C       47   8 O                                       1.4107629
    39   6 C       48   8 O                                       1.3958999
    43   6 C       48   8 O                                       1.4238873
    44   6 C       49   8 O                                       1.4030328
    39   6 C       50   1 H                                       1.0974279
    40   6 C       51   1 H                                       1.1007869
    41   6 C       52   1 H                                       1.1034491
    42   6 C       53   1 H                                       1.0978958
    43   6 C       54   1 H                                       1.0965145
    44   6 C       55   1 H                                       1.0941943
    44   6 C       56   1 H                                       1.0929212
    45   8 O       57   1 H                                       0.9669038
    49   8 O       58   1 H                                       0.9703712
    60   6 C       61   6 C                                       1.5353804
    61   6 C       62   6 C                                       1.5337984
    62   6 C       63   6 C                                       1.5405890 (max)
    63   6 C       64   6 C                                       1.5376050
    60   6 C       65   8 O                                       1.4018676
    61   6 C       66   8 O                                       1.4004931
    39   6 C       67   8 O                                       1.4142351
    62   6 C       67   8 O                                       1.4220511
    59   6 C       68   8 O                                       1.3962556
    63   6 C       68   8 O                                       1.4205956
    59   6 C       69   1 H                                       1.0991326
    60   6 C       70   1 H                                       1.1017600
    61   6 C       71   1 H                                       1.1019438
    62   6 C       72   1 H                                       1.0979203
    63   6 C       73   1 H                                       1.0951829
    65   8 O       74   1 H                                       0.9689302
    66   8 O       75   1 H                                       0.9724256
    76   6 C       77   6 C                                       1.5274564
    77   6 C       78   6 C                                       1.5321400
    79   6 C       80   6 C                                       1.5342734
    80   6 C       81   6 C                                       1.5387148
    77   6 C       82   8 O                                       1.4068790
    78   6 C       83   8 O                                       1.4013675
    59   6 C       84   8 O                                       1.4074278
    79   6 C       84   8 O                                       1.4256692
    76   6 C       85   8 O                                       1.3909111
    80   6 C       85   8 O                                       1.4238847
    81   6 C       86   8 O                                       1.4075921
    76   6 C       87   1 H                                       1.0997895
    77   6 C       88   1 H                                       1.0974017
    78   6 C       89   1 H                                       1.1000285
    79   6 C       90   1 H                                       1.0960010
    80   6 C       91   1 H                                       1.0980021
    81   6 C       92   1 H                                       1.0969598
    81   6 C       93   1 H                                       1.0966717
    82   8 O       94   1 H                                       0.9657706
    83   8 O       95   1 H                                       0.9682802
    86   8 O       96   1 H                                       0.9633551 (min)
     9   8 O       97   6 C                                       1.4139676
    97   6 C       98   6 C                                       1.5403712
    98   6 C       99   6 C                                       1.5337155
    99   6 C      100   6 C                                       1.5376041
   100   6 C      101   6 C                                       1.5315147
   101   6 C      102   6 C                                       1.5375481
    98   6 C      103   8 O                                       1.4042891
    99   6 C      104   8 O                                       1.4000550
    76   6 C      105   8 O                                       1.4089202
   100   6 C      105   8 O                                       1.4107464
    97   6 C      106   8 O                                       1.3961650
   101   6 C      106   8 O                                       1.4237877
   102   6 C      107   8 O                                       1.4029379
    97   6 C      108   1 H                                       1.0974722
    98   6 C      109   1 H                                       1.1008948
    99   6 C      110   1 H                                       1.1034747
   100   6 C      111   1 H                                       1.0979644
   101   6 C      112   1 H                                       1.0965932
   102   6 C      113   1 H                                       1.0941389
   102   6 C      114   1 H                                       1.0928414
   103   8 O      115   1 H                                       0.9668324
   104   8 O      116   1 H                                       0.9729367
   107   8 O      117   1 H                                       0.9706021
   118   6 C      119   6 C                                       1.4015108
     6   6 C      120   7 N                                       1.4440371
   118   6 C      120   7 N                                       1.3886245
    64   6 C      121   7 N                                       1.4434985
   119   6 C      121   7 N                                       1.3880918
   120   7 N      122   6 C                                       1.3459231
   121   7 N      122   6 C                                       1.3462362
    64   6 C      123   1 H                                       1.0901994
    64   6 C      124   1 H                                       1.0965649
     6   6 C      125   1 H                                       1.0904635
     6   6 C      126   1 H                                       1.0967106
    46   8 O      127   1 H                                       0.9727612
   119   6 C      128   6 C                                       1.3844684
   118   6 C      129   6 C                                       1.3845108
   122   6 C      130   7 N                                       1.3350373
   130   7 N      131   1 H                                       1.0127487
   128   6 C      132   6 C                                       1.3832582
   129   6 C      133   6 C                                       1.3833148
   132   6 C      133   6 C                                       1.3917834
   132   6 C      134   1 H                                       1.0782240
   128   6 C      135   1 H                                       1.0773482
   133   6 C      136   1 H                                       1.0782089
   129   6 C      137   1 H                                       1.0773543
   130   7 N      138   1 H                                       1.0127870

 * 6 distinct bonds (by element types)

   Z      Z             #   av. dist./Å        max./Å        min./Å
   1 H    6 C          46     1.0959362     1.1034747     1.0773482
   6 C    6 C          32     1.5078195     1.5405890     1.3832582
   1 H    7 N           2     1.0127678     1.0127870     1.0127487
   6 C    7 N           7     1.3844926     1.4440371     1.3350373
   1 H    8 O          16     0.9686322     0.9729367     0.9633551
   6 C    8 O          40     1.4083207     1.4259734     1.3909111


optimized geometry written to: xtbopt.xyz


           -------------------------------------------------
          | TOTAL ENERGY             -247.156701164123 Eh   |
          | GRADIENT NORM               0.000567185166 Eh/α |
          | HOMO-LUMO GAP               3.695554225282 eV   |
           -------------------------------------------------

------------------------------------------------------------------------
 * finished run on 2022/03/19 at 13:23:02.602     
------------------------------------------------------------------------
 total:
 * wall-time:     0 d,  0 h,  0 min, 38.313 sec
 *  cpu-time:     0 d,  0 h, 30 min,  9.029 sec
 * ratio c/w:    47.217 speedup
 SCF:
 * wall-time:     0 d,  0 h,  0 min,  0.675 sec
 *  cpu-time:     0 d,  0 h,  0 min, 35.699 sec
 * ratio c/w:    52.890 speedup
 ANC optimizer:
 * wall-time:     0 d,  0 h,  0 min, 37.514 sec
 *  cpu-time:     0 d,  0 h, 29 min, 26.686 sec
 * ratio c/w:    47.094 speedup

