      -----------------------------------------------------------      
     |                   =====================                   |     
     |                           x T B                           |     
     |                   =====================                   |     
     |                         S. Grimme                         |     
     |          Mulliken Center for Theoretical Chemistry        |     
     |                    University of Bonn                     |     
      -----------------------------------------------------------      

   * xtb version 6.4.1 (bd6e46d) compiled by 'conda@4901f00b25ba' on 2021-06-10

   xtb is free software: you can redistribute it and/or modify it under
   the terms of the GNU Lesser General Public License as published by
   the Free Software Foundation, either version 3 of the License, or
   (at your option) any later version.
   
   xtb is distributed in the hope that it will be useful,
   but WITHOUT ANY WARRANTY; without even the implied warranty of
   MERCHANTABILITY or FITNESS FOR A PARTICULAR PURPOSE.  See the
   GNU Lesser General Public License for more details.
   
   Cite this work as:
   * C. Bannwarth, E. Caldeweyher, S. Ehlert, A. Hansen, P. Pracht,
     J. Seibert, S. Spicher, S. Grimme, WIREs Comput. Mol. Sci., 2020, 11,
     e01493. DOI: 10.1002/wcms.1493
   
   for GFN2-xTB:
   * C. Bannwarth, S. Ehlert and S. Grimme., J. Chem. Theory Comput., 2019,
     15, 1652-1671. DOI: 10.1021/acs.jctc.8b01176
   for GFN1-xTB:
   * S. Grimme, C. Bannwarth, P. Shushkov, J. Chem. Theory Comput., 2017,
     13, 1989-2009. DOI: 10.1021/acs.jctc.7b00118
   for GFN0-xTB:
   * P. Pracht, E. Caldeweyher, S. Ehlert, S. Grimme, ChemRxiv, 2019, preprint.
     DOI: 10.26434/chemrxiv.8326202.v1
   for GFN-FF:
   * S. Spicher and S. Grimme, Angew. Chem. Int. Ed., 2020, 59, 15665-15673.
     DOI: 10.1002/anie.202004239
   
   for DFT-D4:
   * E. Caldeweyher, C. Bannwarth and S. Grimme, J. Chem. Phys., 2017,
     147, 034112. DOI: 10.1063/1.4993215
   * E. Caldeweyher, S. Ehlert, A. Hansen, H. Neugebauer, S. Spicher,
     C. Bannwarth and S. Grimme, J. Chem. Phys., 2019, 150, 154122.
     DOI: 10.1063/1.5090222
   * E. Caldeweyher, J.-M. Mewes, S. Ehlert and S. Grimme, Phys. Chem. Chem. Phys.
     2020, 22, 8499-8512. DOI: 10.1039/D0CP00502A
   
   for sTDA-xTB:
   * S. Grimme and C. Bannwarth, J. Chem. Phys., 2016, 145, 054103.
     DOI: 10.1063/1.4959605
   
   in the mass-spec context:
   * V. Asgeirsson, C. Bauer and S. Grimme, Chem. Sci., 2017, 8, 4879.
     DOI: 10.1039/c7sc00601b
   * J. Koopman and S. Grimme, ACS Omega 2019, 4, 12, 15120-15133.
     DOI: 10.1021/acsomega.9b02011
   
   for metadynamics refer to:
   * S. Grimme, J. Chem. Theory Comput., 2019, 155, 2847-2862
     DOI: 10.1021/acs.jctc.9b00143
   
   for SPH calculations refer to:
   * S. Spicher and S. Grimme, J. Chem. Theory Comput., 2021, 17, 1701-1714
     DOI: 10.1021/acs.jctc.0c01306
   
   with help from (in alphabetical order)
   P. Atkinson, C. Bannwarth, F. Bohle, G. Brandenburg, E. Caldeweyher
   M. Checinski, S. Dohm, S. Ehlert, S. Ehrlich, I. Gerasimov, J. Koopman
   C. Lavigne, S. Lehtola, F. März, M. Müller, F. Musil, H. Neugebauer
   J. Pisarek, C. Plett, P. Pracht, J. Seibert, P. Shushkov, S. Spicher
   M. Stahn, M. Steiner, T. Strunk, J. Stückrath, T. Rose, and J. Unsleber
   
 * started run on 2022/03/19 at 13:19:23.655     

           -------------------------------------------------
          |                Calculation Setup                |
           -------------------------------------------------

          program call               : /jet/home/maihfly/.conda/envs/Cyclodextrins-Env/bin/xtb aBiCyDNH_opt_xtb.xyz --chrg 0 --uhf 0 --opt
          hostname                   : l009
          coordinate file            : aBiCyDNH_opt_xtb.xyz
          omp threads                :                    36
          number of atoms            :                   137
          number of electrons        :                   418
          charge                     :                     0
          spin                       :                   0.0
          first test random number   :      0.56276253754554

   ID    Z sym.   atoms
    1    6 C      1-6, 18-23, 39-44, 59-64, 76-81, 97-102, 118, 119, 122,
                  128, 129, 132, 133
    2    8 O      7-10, 24-28, 45-49, 65-68, 82-86, 103-107
    3    1 H      11-17, 29-38, 50-58, 69-75, 87-96, 108-117, 123-127, 131,
                  134-137
    4    7 N      120, 121, 130

           -------------------------------------------------
          |                 G F N 2 - x T B                 |
           -------------------------------------------------

        Reference                      10.1021/acs.jctc.8b01176
      * Hamiltonian:
        H0-scaling (s, p, d)           1.850000    2.230000    2.230000
        zeta-weighting                 0.500000
      * Dispersion:
        s8                             2.700000
        a1                             0.520000
        a2                             5.000000
        s9                             5.000000
      * Repulsion:
        kExp                           1.500000    1.000000
        rExp                           1.000000
      * Coulomb:
        alpha                          2.000000
        third order                    shell-resolved
        anisotropic                    true
        a3                             3.000000
        a5                             4.000000
        cn-shift                       1.200000
        cn-exp                         4.000000
        max-rad                        5.000000


          ...................................................
          :                      SETUP                      :
          :.................................................:
          :  # basis functions                 359          :
          :  # atomic orbitals                 359          :
          :  # shells                          211          :
          :  # electrons                       418          :
          :  max. iterations                   250          :
          :  Hamiltonian                  GFN2-xTB          :
          :  restarted?                      false          :
          :  GBSA solvation                  false          :
          :  PC potential                    false          :
          :  electronic temp.          300.0000000     K    :
          :  accuracy                    1.0000000          :
          :  -> integral cutoff          0.2500000E+02      :
          :  -> integral neglect         0.1000000E-07      :
          :  -> SCF convergence          0.1000000E-05 Eh   :
          :  -> wf. convergence          0.1000000E-03 e    :
          :  Broyden damping             0.4000000          :
          ...................................................

 iter      E             dE          RMSdq      gap      omega  full diag
   1   -248.6033223 -0.248603E+03  0.448E+00    2.89       0.0  T
   2   -248.8569373 -0.253615E+00  0.246E+00    3.40       1.0  T
   3   -248.8630234 -0.608607E-02  0.814E-01    3.27       1.0  T
   4   -248.8694488 -0.642548E-02  0.145E-01    3.41       1.0  T
   5   -248.8698958 -0.446964E-03  0.712E-02    3.37       1.0  T
   6   -248.8699985 -0.102689E-03  0.309E-02    3.38       1.0  T
   7   -248.8700428 -0.442650E-04  0.124E-02    3.38       1.0  T
   8   -248.8700498 -0.701397E-05  0.405E-03    3.38       2.1  T
   9   -248.8700505 -0.695443E-06  0.164E-03    3.38       5.2  T
  10   -248.8700506 -0.799741E-07  0.713E-04    3.38      12.0  T
  11   -248.8700506 -0.132677E-07  0.215E-04    3.38      39.7  T

   *** convergence criteria satisfied after 11 iterations ***

         #    Occupation            Energy/Eh            Energy/eV
      -------------------------------------------------------------
         1        2.0000           -0.7434059             -20.2291
       ...           ...                  ...                  ...
       203        2.0000           -0.4081434             -11.1061
       204        2.0000           -0.4074338             -11.0868
       205        2.0000           -0.4042579             -11.0004
       206        2.0000           -0.4003433             -10.8939
       207        2.0000           -0.3773793             -10.2690
       208        2.0000           -0.3613639              -9.8332
       209        2.0000           -0.3417969              -9.3008 (HOMO)
       210                         -0.2176335              -5.9221 (LUMO)
       211                         -0.2066278              -5.6226
       212                         -0.1662755              -4.5246
       213                         -0.0844805              -2.2988
       214                         -0.0767076              -2.0873
       ...                                ...                  ...
       359                          0.6858790              18.6637
      -------------------------------------------------------------
                  HL-Gap            0.1241634 Eh            3.3787 eV
             Fermi-level           -0.2797152 Eh           -7.6114 eV

 SCC (total)                   0 d,  0 h,  0 min,  0.619 sec
 SCC setup                      ...        0 min,  0.007 sec (  1.069%)
 Dispersion                     ...        0 min,  0.005 sec (  0.824%)
 classical contributions        ...        0 min,  0.003 sec (  0.530%)
 integral evaluation            ...        0 min,  0.010 sec (  1.631%)
 iterations                     ...        0 min,  0.542 sec ( 87.510%)
 molecular gradient             ...        0 min,  0.036 sec (  5.754%)
 printout                       ...        0 min,  0.016 sec (  2.662%)

         :::::::::::::::::::::::::::::::::::::::::::::::::::::
         ::                     SUMMARY                     ::
         :::::::::::::::::::::::::::::::::::::::::::::::::::::
         :: total energy            -246.943371077406 Eh    ::
         :: gradient norm              0.146126763243 Eh/a0 ::
         :: HOMO-LUMO gap              3.378659301809 eV    ::
         ::.................................................::
         :: SCC energy              -248.870050565897 Eh    ::
         :: -> isotropic ES            0.640327452298 Eh    ::
         :: -> anisotropic ES         -0.034996357771 Eh    ::
         :: -> anisotropic XC         -0.022125236483 Eh    ::
         :: -> dispersion             -0.174437603042 Eh    ::
         :: repulsion energy           1.915260911051 Eh    ::
         :: add. restraining           0.000000000000 Eh    ::
         :: total charge               0.000000000000 e     ::
         :::::::::::::::::::::::::::::::::::::::::::::::::::::

      ----------------------------------------------------------- 
     |                   =====================                   |
     |                        A N C O P T                        |
     |                   =====================                   |
     |               Approximate Normal Coordinate               |
     |                Rational Function Optimizer                |
      ----------------------------------------------------------- 

          ...................................................
          :                      SETUP                      :
          :.................................................:
          :   optimization level            normal          :
          :   max. optcycles                   411          :
          :   ANC micro-cycles                  20          :
          :   degrees of freedom               405          :
          :.................................................:
          :   RF solver                   davidson          :
          :   write xtbopt.log                true          :
          :   linear?                        false          :
          :   energy convergence         0.5000000E-05 Eh   :
          :   grad. convergence          0.1000000E-02 Eh/α :
          :   maximium RF displ.         1.0000000          :
          :   Hlow (freq-cutoff)         0.1000000E-01      :
          :   Hmax (freq-cutoff)         5.0000000          :
          :   S6 in model hess.         20.0000000          :
          ...................................................

generating ANC from model Hessian ...
Using Lindh-Hessian (1995)
 Shifting diagonal of input Hessian by    9.8817128988178196E-003
 Lowest  eigenvalues of input Hessian
    0.000000    0.000000    0.000000    0.000000    0.000000    0.000000
    0.010000    0.010059    0.010148    0.010236    0.010287    0.010541
    0.010755    0.011011    0.011099    0.011148    0.011267    0.011505
 Highest eigenvalues
    1.763221    1.914371    1.964884    2.023834    2.130938    2.201460


........................................................................
.............................. CYCLE    1 ..............................
........................................................................
   1   -248.8700506 -0.248870E+03  0.101E-04    3.38       0.0  T
   2   -248.8700506 -0.295216E-09  0.640E-05    3.38     133.4  T
   3   -248.8700506 -0.207393E-09  0.387E-05    3.38     220.8  T
     SCC iter.                  ...        0 min,  0.100 sec
     gradient                   ...        0 min,  0.044 sec
 * total energy  :  -246.9433711 Eh     change       -0.2122988E-08 Eh
   gradient norm :     0.1461260 Eh/α   predicted     0.0000000E+00 (-100.00%)
   displ. norm   :     0.4503650 α      lambda       -0.3893692E-01
   maximum displ.:     0.1075045 α      in ANC's #154, #69, #70, ...

........................................................................
.............................. CYCLE    2 ..............................
........................................................................
   1   -248.9527109 -0.248953E+03  0.166E-01    3.40       0.0  T
   2   -248.9528453 -0.134362E-03  0.984E-02    3.42       1.0  T
   3   -248.9527917  0.535765E-04  0.281E-02    3.41       1.0  T
   4   -248.9528679 -0.761703E-04  0.706E-03    3.42       1.2  T
   5   -248.9528720 -0.412840E-05  0.307E-03    3.42       2.8  T
   6   -248.9528724 -0.331320E-06  0.126E-03    3.42       6.8  T
   7   -248.9528724 -0.662630E-07  0.623E-04    3.42      13.7  T
   8   -248.9528724 -0.131400E-07  0.173E-04    3.42      49.3  T
     SCC iter.                  ...        0 min,  0.271 sec
     gradient                   ...        0 min,  0.035 sec
 * total energy  :  -246.9720923 Eh     change       -0.2872124E-01 Eh
   gradient norm :     0.0756983 Eh/α   predicted    -0.2341817E-01 ( -18.46%)
   displ. norm   :     0.4734625 α      lambda       -0.1875466E-01
   maximum displ.:     0.1253544 α      in ANC's #61, #69, #64, ...

........................................................................
.............................. CYCLE    3 ..............................
........................................................................
   1   -249.0048940 -0.249005E+03  0.136E-01    3.41       0.0  T
   2   -249.0050181 -0.124075E-03  0.810E-02    3.44       1.0  T
   3   -249.0049745  0.435607E-04  0.269E-02    3.42       1.0  T
   4   -249.0050390 -0.645125E-04  0.686E-03    3.43       1.2  T
   5   -249.0050431 -0.408455E-05  0.285E-03    3.43       3.0  T
   6   -249.0050435 -0.342750E-06  0.108E-03    3.43       7.9  T
   7   -249.0050435 -0.451280E-07  0.545E-04    3.43      15.7  T
   8   -249.0050435 -0.695695E-08  0.157E-04    3.43      54.4  T
     SCC iter.                  ...        0 min,  0.322 sec
     gradient                   ...        0 min,  0.042 sec
 * total energy  :  -246.9840364 Eh     change       -0.1194411E-01 Eh
   gradient norm :     0.0196886 Eh/α   predicted    -0.1147942E-01 (  -3.89%)
   displ. norm   :     0.3894337 α      lambda       -0.4244439E-02
   maximum displ.:     0.1107294 α      in ANC's #64, #61, #23, ...

........................................................................
.............................. CYCLE    4 ..............................
........................................................................
   1   -249.0137874 -0.249014E+03  0.699E-02    3.42       0.0  T
   2   -249.0138105 -0.231621E-04  0.417E-02    3.42       1.0  T
   3   -249.0137978  0.127130E-04  0.138E-02    3.42       1.0  T
   4   -249.0138158 -0.179462E-04  0.317E-03    3.42       2.7  T
   5   -249.0138166 -0.829755E-06  0.144E-03    3.42       5.9  T
   6   -249.0138167 -0.610216E-07  0.535E-04    3.42      16.0  T
   7   -249.0138167 -0.940892E-08  0.238E-04    3.42      35.8  T
     SCC iter.                  ...        0 min,  0.332 sec
     gradient                   ...        0 min,  0.044 sec
 * total energy  :  -246.9870775 Eh     change       -0.3041086E-02 Eh
   gradient norm :     0.0127559 Eh/α   predicted    -0.2444261E-02 ( -19.63%)
   displ. norm   :     0.4190800 α      lambda       -0.2395849E-02
   maximum displ.:     0.1438391 α      in ANC's #23, #64, #16, ...

........................................................................
.............................. CYCLE    5 ..............................
........................................................................
   1   -249.0166079 -0.249017E+03  0.622E-02    3.42       0.0  T
   2   -249.0166245 -0.165368E-04  0.373E-02    3.42       1.0  T
   3   -249.0166146  0.987985E-05  0.129E-02    3.42       1.0  T
   4   -249.0166292 -0.146392E-04  0.272E-03    3.42       3.1  T
   5   -249.0166297 -0.499770E-06  0.140E-03    3.42       6.1  T
   6   -249.0166298 -0.431897E-07  0.476E-04    3.42      18.0  T
   7   -249.0166298 -0.103169E-07  0.187E-04    3.42      45.6  T
     SCC iter.                  ...        0 min,  0.331 sec
     gradient                   ...        0 min,  0.045 sec
 * total energy  :  -246.9888293 Eh     change       -0.1751763E-02 Eh
   gradient norm :     0.0118801 Eh/α   predicted    -0.1408314E-02 ( -19.61%)
   displ. norm   :     0.4278184 α      lambda       -0.1531892E-02
   maximum displ.:     0.1661669 α      in ANC's #23, #16, #11, ...

........................................................................
.............................. CYCLE    6 ..............................
........................................................................
   1   -249.0190797 -0.249019E+03  0.579E-02    3.42       0.0  T
   2   -249.0190916 -0.118974E-04  0.350E-02    3.41       1.0  T
   3   -249.0190845  0.709162E-05  0.109E-02    3.42       1.0  T
   4   -249.0190955 -0.109737E-04  0.246E-03    3.41       3.5  T
   5   -249.0190958 -0.300078E-06  0.132E-03    3.41       6.5  T
   6   -249.0190958 -0.486316E-07  0.414E-04    3.41      20.6  T
   7   -249.0190959 -0.743907E-08  0.174E-04    3.41      49.2  T
     SCC iter.                  ...        0 min,  0.336 sec
     gradient                   ...        0 min,  0.047 sec
 * total energy  :  -246.9899723 Eh     change       -0.1143037E-02 Eh
   gradient norm :     0.0099014 Eh/α   predicted    -0.9061369E-03 ( -20.73%)
   displ. norm   :     0.4302513 α      lambda       -0.1096241E-02
   maximum displ.:     0.1640029 α      in ANC's #23, #16, #11, ...

........................................................................
.............................. CYCLE    7 ..............................
........................................................................
   1   -249.0220755 -0.249022E+03  0.572E-02    3.41       0.0  T
   2   -249.0220842 -0.872344E-05  0.346E-02    3.41       1.0  T
   3   -249.0220807  0.350308E-05  0.798E-03    3.41       1.1  T
   4   -249.0220871 -0.635535E-05  0.231E-03    3.41       3.7  T
   5   -249.0220872 -0.184503E-06  0.120E-03    3.41       7.1  T
   6   -249.0220873 -0.599379E-07  0.378E-04    3.41      22.6  T
   7   -249.0220873 -0.407965E-08  0.159E-04    3.41      53.6  T
     SCC iter.                  ...        0 min,  0.358 sec
     gradient                   ...        0 min,  0.046 sec
 * total energy  :  -246.9907820 Eh     change       -0.8096525E-03 Eh
   gradient norm :     0.0077276 Eh/α   predicted    -0.6495926E-03 ( -19.77%)
   displ. norm   :     0.3898087 α      lambda       -0.7125451E-03
   maximum displ.:     0.1608860 α      in ANC's #16, #11, #23, ...

........................................................................
.............................. CYCLE    8 ..............................
........................................................................
   1   -249.0244484 -0.249024E+03  0.533E-02    3.41       0.0  T
   2   -249.0244543 -0.591645E-05  0.321E-02    3.41       1.0  T
   3   -249.0244541  0.239613E-06  0.478E-03    3.41       1.8  T
   4   -249.0244560 -0.195309E-05  0.189E-03    3.41       4.5  T
   5   -249.0244561 -0.755267E-07  0.955E-04    3.41       8.9  T
   6   -249.0244562 -0.551899E-07  0.317E-04    3.41      27.0  T
     SCC iter.                  ...        0 min,  0.228 sec
     gradient                   ...        0 min,  0.037 sec
 * total energy  :  -246.9912959 Eh     change       -0.5139008E-03 Eh
   gradient norm :     0.0068049 Eh/α   predicted    -0.4104215E-03 ( -20.14%)
   displ. norm   :     0.3267234 α      lambda       -0.4300947E-03
   maximum displ.:     0.1442333 α      in ANC's #16, #11, #4, ...

........................................................................
.............................. CYCLE    9 ..............................
........................................................................
   1   -249.0255984 -0.249026E+03  0.463E-02    3.41       0.0  T
   2   -249.0256023 -0.384199E-05  0.277E-02    3.41       1.0  T
   3   -249.0256026 -0.313817E-06  0.315E-03    3.41       2.7  T
   4   -249.0256032 -0.660959E-06  0.134E-03    3.41       6.4  T
   5   -249.0256033 -0.133669E-07  0.626E-04    3.41      13.6  T
   6   -249.0256033 -0.183944E-07  0.244E-04    3.41      35.0  T
     SCC iter.                  ...        0 min,  0.237 sec
     gradient                   ...        0 min,  0.036 sec
 * total energy  :  -246.9916105 Eh     change       -0.3146393E-03 Eh
   gradient norm :     0.0060358 Eh/α   predicted    -0.2380048E-03 ( -24.36%)
   displ. norm   :     0.3095759 α      lambda       -0.3213341E-03
   maximum displ.:     0.1382413 α      in ANC's #11, #16, #4, ...

........................................................................
.............................. CYCLE   10 ..............................
........................................................................
   1   -249.0257310 -0.249026E+03  0.443E-02    3.41       0.0  T
   2   -249.0257337 -0.272773E-05  0.263E-02    3.41       1.0  T
   3   -249.0257340 -0.236796E-06  0.259E-03    3.41       3.3  T
   4   -249.0257344 -0.427421E-06  0.113E-03    3.41       7.6  T
   5   -249.0257344 -0.111941E-07  0.546E-04    3.41      15.6  T
   6   -249.0257344 -0.105436E-07  0.206E-04    3.41      41.5  T
     SCC iter.                  ...        0 min,  0.270 sec
     gradient                   ...        0 min,  0.037 sec
 * total energy  :  -246.9918507 Eh     change       -0.2401734E-03 Eh
   gradient norm :     0.0053379 Eh/α   predicted    -0.1760671E-03 ( -26.69%)
   displ. norm   :     0.3184153 α      lambda       -0.2792360E-03
   maximum displ.:     0.1361606 α      in ANC's #11, #16, #4, ...

........................................................................
.............................. CYCLE   11 ..............................
........................................................................
   1   -249.0252668 -0.249025E+03  0.444E-02    3.41       0.0  T
   2   -249.0252687 -0.186938E-05  0.263E-02    3.41       1.0  T
   3   -249.0252689 -0.256719E-06  0.212E-03    3.41       4.0  T
   4   -249.0252692 -0.261389E-06  0.101E-03    3.41       8.5  T
   5   -249.0252692 -0.787932E-08  0.463E-04    3.41      18.5  T
   6   -249.0252692 -0.914878E-08  0.180E-04    3.41      47.4  T
     SCC iter.                  ...        0 min,  0.292 sec
     gradient                   ...        0 min,  0.039 sec
 * total energy  :  -246.9920616 Eh     change       -0.2109627E-03 Eh
   gradient norm :     0.0052360 Eh/α   predicted    -0.1537768E-03 ( -27.11%)
   displ. norm   :     0.3293513 α      lambda       -0.2469248E-03
   maximum displ.:     0.1292859 α      in ANC's #11, #4, #16, ...

........................................................................
.............................. CYCLE   12 ..............................
........................................................................
   1   -249.0247446 -0.249025E+03  0.433E-02    3.41       0.0  T
   2   -249.0247459 -0.134295E-05  0.257E-02    3.41       1.0  T
   3   -249.0247461 -0.202888E-06  0.197E-03    3.41       4.3  T
   4   -249.0247463 -0.241182E-06  0.975E-04    3.41       8.8  T
   5   -249.0247464 -0.982070E-08  0.455E-04    3.41      18.8  T
     SCC iter.                  ...        0 min,  0.249 sec
     gradient                   ...        0 min,  0.039 sec
 * total energy  :  -246.9922477 Eh     change       -0.1860985E-03 Eh
   gradient norm :     0.0052598 Eh/α   predicted    -0.1368629E-03 ( -26.46%)
   displ. norm   :     0.3216674 α      lambda       -0.2053566E-03
   maximum displ.:     0.1333562 α      in ANC's #4, #3, #11, ...

........................................................................
.............................. CYCLE   13 ..............................
........................................................................
   1   -249.0248361 -0.249025E+03  0.387E-02    3.41       0.0  T
   2   -249.0248373 -0.117816E-05  0.230E-02    3.41       1.0  T
   3   -249.0248373 -0.273801E-07  0.212E-03    3.41       4.0  T
   4   -249.0248377 -0.368199E-06  0.952E-04    3.41       9.0  T
   5   -249.0248377 -0.144230E-07  0.485E-04    3.41      17.6  T
     SCC iter.                  ...        0 min,  0.239 sec
     gradient                   ...        0 min,  0.038 sec
 * total energy  :  -246.9924036 Eh     change       -0.1558259E-03 Eh
   gradient norm :     0.0049077 Eh/α   predicted    -0.1133039E-03 ( -27.29%)
   displ. norm   :     0.3130648 α      lambda       -0.1729920E-03
   maximum displ.:     0.1416991 α      in ANC's #4, #3, #5, ...

........................................................................
.............................. CYCLE   14 ..............................
........................................................................
   1   -249.0255277 -0.249026E+03  0.341E-02    3.41       0.0  T
   2   -249.0255288 -0.112573E-05  0.203E-02    3.41       1.0  T
   3   -249.0255288  0.266076E-07  0.211E-03    3.41       4.0  T
   4   -249.0255291 -0.389547E-06  0.916E-04    3.41       9.3  T
   5   -249.0255292 -0.152648E-07  0.487E-04    3.41      17.5  T
     SCC iter.                  ...        0 min,  0.241 sec
     gradient                   ...        0 min,  0.038 sec
 * total energy  :  -246.9925376 Eh     change       -0.1340740E-03 Eh
   gradient norm :     0.0046955 Eh/α   predicted    -0.9497784E-04 ( -29.16%)
   displ. norm   :     0.3154926 α      lambda       -0.1617297E-03
   maximum displ.:     0.1531452 α      in ANC's #4, #3, #5, ...

........................................................................
.............................. CYCLE   15 ..............................
........................................................................
   1   -249.0267639 -0.249027E+03  0.313E-02    3.41       0.0  T
   2   -249.0267650 -0.109702E-05  0.187E-02    3.41       1.0  T
   3   -249.0267651 -0.629071E-07  0.194E-03    3.41       4.4  T
   4   -249.0267654 -0.281694E-06  0.858E-04    3.41      10.0  T
   5   -249.0267654 -0.604575E-08  0.451E-04    3.41      19.0  T
     SCC iter.                  ...        0 min,  0.244 sec
     gradient                   ...        0 min,  0.037 sec
 * total energy  :  -246.9926660 Eh     change       -0.1283725E-03 Eh
   gradient norm :     0.0047218 Eh/α   predicted    -0.8892181E-04 ( -30.73%)
   displ. norm   :     0.3508378 α      lambda       -0.1691991E-03
   maximum displ.:     0.1782891 α      in ANC's #4, #3, #5, ...

........................................................................
.............................. CYCLE   16 ..............................
........................................................................
   1   -249.0272938 -0.249027E+03  0.327E-02    3.41       0.0  T
   2   -249.0272953 -0.143506E-05  0.195E-02    3.41       1.0  T
   3   -249.0272954 -0.902713E-07  0.219E-03    3.41       3.9  T
   4   -249.0272957 -0.336703E-06  0.913E-04    3.41       9.4  T
   5   -249.0272957 -0.209315E-08  0.430E-04    3.41      19.8  T
     SCC iter.                  ...        0 min,  0.242 sec
     gradient                   ...        0 min,  0.038 sec
 * total energy  :  -246.9928033 Eh     change       -0.1372670E-03 Eh
   gradient norm :     0.0061909 Eh/α   predicted    -0.9501513E-04 ( -30.78%)
   displ. norm   :     0.4012978 α      lambda       -0.2175270E-03
   maximum displ.:     0.2129620 α      in ANC's #3, #4, #5, ...

........................................................................
.............................. CYCLE   17 ..............................
........................................................................
   1   -249.0297611 -0.249030E+03  0.345E-02    3.41       0.0  T
   2   -249.0297629 -0.173635E-05  0.205E-02    3.41       1.0  T
   3   -249.0297628  0.119716E-06  0.256E-03    3.41       3.3  T
   4   -249.0297633 -0.580510E-06  0.999E-04    3.41       8.6  T
   5   -249.0297633 -0.184077E-07  0.545E-04    3.41      15.7  T
     SCC iter.                  ...        0 min,  0.241 sec
     gradient                   ...        0 min,  0.038 sec
 * total energy  :  -246.9929574 Eh     change       -0.1541187E-03 Eh
   gradient norm :     0.0058984 Eh/α   predicted    -0.1262807E-03 ( -18.06%)
   displ. norm   :     0.5547447 α      lambda       -0.3070543E-03
   maximum displ.:     0.2984970 α      in ANC's #3, #4, #5, ...

........................................................................
.............................. CYCLE   18 ..............................
........................................................................
   1   -249.0264526 -0.249026E+03  0.496E-02    3.41       0.0  T
   2   -249.0264577 -0.508326E-05  0.297E-02    3.41       1.0  T
   3   -249.0264565  0.113604E-05  0.517E-03    3.41       1.7  T
   4   -249.0264591 -0.252551E-05  0.174E-03    3.41       4.9  T
   5   -249.0264591 -0.888701E-07  0.969E-04    3.41       8.8  T
   6   -249.0264592 -0.409843E-07  0.298E-04    3.41      28.6  T
     SCC iter.                  ...        0 min,  0.286 sec
     gradient                   ...        0 min,  0.038 sec
 * total energy  :  -246.9931224 Eh     change       -0.1649766E-03 Eh
   gradient norm :     0.0143154 Eh/α   predicted    -0.2007785E-03 (  21.70%)
   displ. norm   :     0.2542816 α      lambda       -0.2555398E-03
   maximum displ.:     0.1502981 α      in ANC's #3, #4, #5, ...

........................................................................
.............................. CYCLE   19 ..............................
........................................................................
   1   -249.0263140 -0.249026E+03  0.215E-02    3.41       0.0  T
   2   -249.0263147 -0.719916E-06  0.127E-02    3.41       1.0  T
   3   -249.0263145  0.189392E-06  0.191E-03    3.41       4.5  T
   4   -249.0263149 -0.364344E-06  0.604E-04    3.41      14.1  T
   5   -249.0263149 -0.109250E-07  0.324E-04    3.41      26.4  T
     SCC iter.                  ...        0 min,  0.273 sec
     gradient                   ...        0 min,  0.042 sec
 * total energy  :  -246.9933486 Eh     change       -0.2261792E-03 Eh
   gradient norm :     0.0097760 Eh/α   predicted    -0.1360351E-03 ( -39.86%)
   displ. norm   :     0.5703332 α      lambda       -0.6235117E-03
   maximum displ.:     0.3345905 α      in ANC's #3, #4, #5, ...

........................................................................
.............................. CYCLE   20 ..............................
........................................................................
   1   -249.0286435 -0.249029E+03  0.507E-02    3.41       0.0  T
   2   -249.0286474 -0.391788E-05  0.301E-02    3.41       1.0  T
   3   -249.0286466  0.799321E-06  0.428E-03    3.41       2.0  T
   4   -249.0286483 -0.172810E-05  0.140E-03    3.41       6.1  T
   5   -249.0286484 -0.595082E-07  0.772E-04    3.41      11.1  T
   6   -249.0286484 -0.228853E-07  0.230E-04    3.41      37.1  T
     SCC iter.                  ...        0 min,  0.270 sec
     gradient                   ...        0 min,  0.036 sec
 * total energy  :  -246.9938596 Eh     change       -0.5110215E-03 Eh
   gradient norm :     0.0067500 Eh/α   predicted    -0.4131666E-03 ( -19.15%)
   displ. norm   :     0.7657610 α      lambda       -0.6928314E-03
   maximum displ.:     0.4589915 α      in ANC's #3, #4, #5, ...
 * RMSD in coord.:     0.4838772 α      energy gain  -0.5048850E-01 Eh

generating ANC from model Hessian ...
Using Lindh-Hessian (1995)
 Shifting diagonal of input Hessian by    9.8673267586015419E-003
 Lowest  eigenvalues of input Hessian
    0.000000    0.000000    0.000000    0.000000    0.000000    0.000000
    0.010000    0.010041    0.010205    0.010273    0.010316    0.010670
    0.010870    0.011048    0.011204    0.011318    0.011358    0.011421
 Highest eigenvalues
    1.873026    1.983079    2.093749    2.106563    2.216593    2.347164


........................................................................
.............................. CYCLE   21 ..............................
........................................................................
   1   -249.0233587 -0.249023E+03  0.680E-02    3.41       0.0  T
   2   -249.0233659 -0.714423E-05  0.405E-02    3.41       1.0  T
   3   -249.0233628  0.307147E-05  0.676E-03    3.41       1.3  T
   4   -249.0233679 -0.512853E-05  0.203E-03    3.41       4.2  T
   5   -249.0233681 -0.141085E-06  0.115E-03    3.41       7.5  T
   6   -249.0233681 -0.421393E-07  0.314E-04    3.41      27.2  T
   7   -249.0233681 -0.376914E-08  0.115E-04    3.41      74.3  T
     SCC iter.                  ...        0 min,  0.245 sec
     gradient                   ...        0 min,  0.035 sec
 * total energy  :  -246.9944724 Eh     change       -0.6128518E-03 Eh
   gradient norm :     0.0134077 Eh/α   predicted     0.0000000E+00 (-100.00%)
   displ. norm   :     0.1180202 α      lambda       -0.5271754E-03
   maximum displ.:     0.0441883 α      in ANC's #17, #66, #50, ...

........................................................................
.............................. CYCLE   22 ..............................
........................................................................
   1   -249.0277844 -0.249028E+03  0.187E-02    3.41       0.0  T
   2   -249.0277861 -0.171645E-05  0.114E-02    3.41       1.0  T
   3   -249.0277858  0.319895E-06  0.293E-03    3.41       2.9  T
   4   -249.0277865 -0.698449E-06  0.854E-04    3.41      10.0  T
   5   -249.0277865 -0.343379E-07  0.469E-04    3.41      18.2  T
     SCC iter.                  ...        0 min,  0.174 sec
     gradient                   ...        0 min,  0.035 sec
 * total energy  :  -246.9949438 Eh     change       -0.4713711E-03 Eh
   gradient norm :     0.0075870 Eh/α   predicted    -0.2672606E-03 ( -43.30%)
   displ. norm   :     0.5468081 α      lambda       -0.2029458E-02
   maximum displ.:     0.1880130 α      in ANC's #17, #66, #50, ...

........................................................................
.............................. CYCLE   23 ..............................
........................................................................
   1   -249.0317202 -0.249032E+03  0.919E-02    3.42       0.0  T
   2   -249.0317678 -0.475880E-04  0.559E-02    3.42       1.0  T
   3   -249.0317586  0.918668E-05  0.153E-02    3.42       1.0  T
   4   -249.0317770 -0.183264E-04  0.450E-03    3.42       1.9  T
   5   -249.0317784 -0.142855E-05  0.218E-03    3.42       3.9  T
   6   -249.0317787 -0.252042E-06  0.892E-04    3.42       9.6  T
   7   -249.0317787 -0.938260E-08  0.277E-04    3.42      30.9  T
     SCC iter.                  ...        0 min,  0.250 sec
     gradient                   ...        0 min,  0.035 sec
 * total energy  :  -246.9958298 Eh     change       -0.8859743E-03 Eh
   gradient norm :     0.0410554 Eh/α   predicted    -0.1318132E-02 (  48.78%)
   displ. norm   :     0.1292957 α      lambda       -0.1623271E-02
   maximum displ.:     0.0420058 α      in ANC's #66, #46, #38, ...

........................................................................
.............................. CYCLE   24 ..............................
........................................................................
   1   -249.0331594 -0.249033E+03  0.347E-02    3.42       0.0  T
   2   -249.0331667 -0.725075E-05  0.204E-02    3.42       1.0  T
   3   -249.0331667 -0.658998E-07  0.505E-03    3.42       1.7  T
   4   -249.0331683 -0.157609E-05  0.211E-03    3.42       4.1  T
   5   -249.0331686 -0.248634E-06  0.100E-03    3.42       8.5  T
   6   -249.0331686 -0.480925E-07  0.478E-04    3.42      17.9  T
   7   -249.0331686 -0.310112E-08  0.113E-04    3.42      75.9  T
     SCC iter.                  ...        0 min,  0.272 sec
     gradient                   ...        0 min,  0.039 sec
 * total energy  :  -246.9966460 Eh     change       -0.8162311E-03 Eh
   gradient norm :     0.0119450 Eh/α   predicted    -0.8252169E-03 (   1.10%)
   displ. norm   :     0.3306800 α      lambda       -0.1242221E-02
   maximum displ.:     0.1075091 α      in ANC's #17, #3, #5, ...

........................................................................
.............................. CYCLE   25 ..............................
........................................................................
   1   -249.0310548 -0.249031E+03  0.482E-02    3.41       0.0  T
   2   -249.0310624 -0.762601E-05  0.295E-02    3.41       1.0  T
   3   -249.0310591  0.331144E-05  0.688E-03    3.42       1.2  T
   4   -249.0310644 -0.533895E-05  0.202E-03    3.41       4.2  T
   5   -249.0310647 -0.249489E-06  0.106E-03    3.41       8.1  T
   6   -249.0310647 -0.382639E-07  0.358E-04    3.41      23.8  T
   7   -249.0310647 -0.181217E-08  0.995E-05    3.41      85.9  T
     SCC iter.                  ...        0 min,  0.242 sec
     gradient                   ...        0 min,  0.034 sec
 * total energy  :  -246.9977294 Eh     change       -0.1083381E-02 Eh
   gradient norm :     0.0206170 Eh/α   predicted    -0.6890568E-03 ( -36.40%)
   displ. norm   :     0.6464546 α      lambda       -0.2495887E-02
   maximum displ.:     0.1801439 α      in ANC's #17, #3, #28, ...

........................................................................
.............................. CYCLE   26 ..............................
........................................................................
   1   -249.0181459 -0.249018E+03  0.993E-02    3.41       0.0  T
   2   -249.0181904 -0.444642E-04  0.601E-02    3.41       1.0  T
   3   -249.0181684  0.220014E-04  0.174E-02    3.41       1.0  T
   4   -249.0182017 -0.332817E-04  0.501E-03    3.41       1.7  T
   5   -249.0182034 -0.171251E-05  0.226E-03    3.41       3.8  T
   6   -249.0182036 -0.196256E-06  0.959E-04    3.41       8.9  T
   7   -249.0182036 -0.911200E-08  0.262E-04    3.41      32.7  T
     SCC iter.                  ...        0 min,  0.245 sec
     gradient                   ...        0 min,  0.034 sec
 * total energy  :  -246.9981472 Eh     change       -0.4178441E-03 Eh
   gradient norm :     0.0600615 Eh/α   predicted    -0.1769874E-02 ( 323.57%)
   displ. norm   :     0.1610001 α      lambda       -0.3395249E-02
   maximum displ.:     0.0456386 α      in ANC's #50, #17, #66, ...

........................................................................
.............................. CYCLE   27 ..............................
........................................................................
   1   -249.0266193 -0.249027E+03  0.465E-02    3.41       0.0  T
   2   -249.0266340 -0.147281E-04  0.270E-02    3.40       1.0  T
   3   -249.0266356 -0.156698E-05  0.656E-03    3.41       1.3  T
   4   -249.0266373 -0.170113E-05  0.297E-03    3.40       2.9  T
   5   -249.0266378 -0.475241E-06  0.134E-03    3.40       6.4  T
   6   -249.0266379 -0.841237E-07  0.674E-04    3.40      12.7  T
   7   -249.0266379 -0.844122E-08  0.159E-04    3.40      53.7  T
     SCC iter.                  ...        0 min,  0.245 sec
     gradient                   ...        0 min,  0.034 sec
 * total energy  :  -246.9998155 Eh     change       -0.1668273E-02 Eh
   gradient norm :     0.0152919 Eh/α   predicted    -0.1741627E-02 (   4.40%)
   displ. norm   :     0.2603960 α      lambda       -0.9821554E-03
   maximum displ.:     0.0940495 α      in ANC's #3, #28, #29, ...

........................................................................
.............................. CYCLE   28 ..............................
........................................................................
   1   -249.0280010 -0.249028E+03  0.333E-02    3.41       0.0  T
   2   -249.0280048 -0.376039E-05  0.203E-02    3.41       1.0  T
   3   -249.0280010  0.376432E-05  0.610E-03    3.41       1.4  T
   4   -249.0280060 -0.493679E-05  0.137E-03    3.41       6.3  T
   5   -249.0280061 -0.132729E-06  0.700E-04    3.41      12.2  T
   6   -249.0280061 -0.800034E-08  0.199E-04    3.41      42.9  T
     SCC iter.                  ...        0 min,  0.219 sec
     gradient                   ...        0 min,  0.036 sec
 * total energy  :  -247.0007054 Eh     change       -0.8898580E-03 Eh
   gradient norm :     0.0144303 Eh/α   predicted    -0.5243809E-03 ( -41.07%)
   displ. norm   :     0.6318714 α      lambda       -0.2552222E-02
   maximum displ.:     0.2308218 α      in ANC's #3, #29, #28, ...

........................................................................
.............................. CYCLE   29 ..............................
........................................................................
   1   -249.0279806 -0.249028E+03  0.907E-02    3.42       0.0  T
   2   -249.0280180 -0.374343E-04  0.550E-02    3.42       1.0  T
   3   -249.0279938  0.241934E-04  0.171E-02    3.42       1.0  T
   4   -249.0280289 -0.350748E-04  0.455E-03    3.42       1.9  T
   5   -249.0280303 -0.140795E-05  0.221E-03    3.42       3.9  T
   6   -249.0280304 -0.129193E-06  0.840E-04    3.42      10.2  T
   7   -249.0280304 -0.940454E-08  0.260E-04    3.42      32.8  T
     SCC iter.                  ...        0 min,  0.257 sec
     gradient                   ...        0 min,  0.036 sec
 * total energy  :  -247.0020086 Eh     change       -0.1303228E-02 Eh
   gradient norm :     0.0400030 Eh/α   predicted    -0.1785632E-02 (  37.02%)
   displ. norm   :     0.1541658 α      lambda       -0.1652610E-02
   maximum displ.:     0.0660259 α      in ANC's #3, #29, #2, ...

........................................................................
.............................. CYCLE   30 ..............................
........................................................................
   1   -249.0368047 -0.249037E+03  0.277E-02    3.43       0.0  T
   2   -249.0368083 -0.364042E-05  0.160E-02    3.43       1.0  T
   3   -249.0368085 -0.232703E-06  0.309E-03    3.43       2.8  T
   4   -249.0368090 -0.487835E-06  0.146E-03    3.43       5.8  T
   5   -249.0368092 -0.147575E-06  0.621E-04    3.43      13.8  T
   6   -249.0368092 -0.170776E-07  0.321E-04    3.43      26.6  T
     SCC iter.                  ...        0 min,  0.232 sec
     gradient                   ...        0 min,  0.037 sec
 * total energy  :  -247.0030530 Eh     change       -0.1044370E-02 Eh
   gradient norm :     0.0212986 Eh/α   predicted    -0.8459463E-03 ( -19.00%)
   displ. norm   :     0.3935818 α      lambda       -0.1681244E-02
   maximum displ.:     0.1843806 α      in ANC's #3, #29, #13, ...

........................................................................
.............................. CYCLE   31 ..............................
........................................................................
   1   -249.0411265 -0.249041E+03  0.544E-02    3.43       0.0  T
   2   -249.0411338 -0.729553E-05  0.324E-02    3.43       1.0  T
   3   -249.0411296  0.421466E-05  0.708E-03    3.43       1.2  T
   4   -249.0411363 -0.673016E-05  0.236E-03    3.43       3.6  T
   5   -249.0411366 -0.258600E-06  0.111E-03    3.43       7.7  T
   6   -249.0411366 -0.362792E-07  0.444E-04    3.43      19.2  T
   7   -249.0411366 -0.274898E-08  0.131E-04    3.43      65.1  T
     SCC iter.                  ...        0 min,  0.282 sec
     gradient                   ...        0 min,  0.038 sec
 * total energy  :  -247.0036247 Eh     change       -0.5717938E-03 Eh
   gradient norm :     0.0265459 Eh/α   predicted    -0.9708308E-03 (  69.79%)
   displ. norm   :     0.5086542 α      lambda       -0.2246880E-02
   maximum displ.:     0.2101407 α      in ANC's #3, #29, #13, ...

........................................................................
.............................. CYCLE   32 ..............................
........................................................................
   1   -249.0329940 -0.249033E+03  0.758E-02    3.44       0.0  T
   2   -249.0330191 -0.250828E-04  0.455E-02    3.43       1.0  T
   3   -249.0330099  0.914514E-05  0.120E-02    3.44       1.0  T
   4   -249.0330261 -0.161180E-04  0.416E-03    3.44       2.1  T
   5   -249.0330272 -0.112314E-05  0.188E-03    3.44       4.5  T
   6   -249.0330273 -0.115544E-06  0.804E-04    3.44      10.6  T
   7   -249.0330273 -0.846791E-08  0.203E-04    3.44      42.0  T
     SCC iter.                  ...        0 min,  0.282 sec
     gradient                   ...        0 min,  0.045 sec
 * total energy  :  -247.0045874 Eh     change       -0.9626935E-03 Eh
   gradient norm :     0.0280643 Eh/α   predicted    -0.1414085E-02 (  46.89%)
   displ. norm   :     0.1363904 α      lambda       -0.9810305E-03
   maximum displ.:     0.0488612 α      in ANC's #28, #29, #66, ...

........................................................................
.............................. CYCLE   33 ..............................
........................................................................
   1   -249.0385518 -0.249039E+03  0.253E-02    3.43       0.0  T
   2   -249.0385546 -0.271780E-05  0.152E-02    3.43       1.0  T
   3   -249.0385532  0.138058E-05  0.446E-03    3.43       1.9  T
   4   -249.0385556 -0.242837E-05  0.144E-03    3.43       5.9  T
   5   -249.0385557 -0.702925E-07  0.698E-04    3.43      12.2  T
   6   -249.0385557 -0.137262E-07  0.270E-04    3.43      31.6  T
     SCC iter.                  ...        0 min,  0.260 sec
     gradient                   ...        0 min,  0.038 sec
 * total energy  :  -247.0050822 Eh     change       -0.4947496E-03 Eh
   gradient norm :     0.0164455 Eh/α   predicted    -0.4996547E-03 (   0.99%)
   displ. norm   :     0.3423480 α      lambda       -0.7739213E-03
   maximum displ.:     0.1941395 α      in ANC's #3, #10, #13, ...

........................................................................
.............................. CYCLE   34 ..............................
........................................................................
   1   -249.0392461 -0.249039E+03  0.384E-02    3.44       0.0  T
   2   -249.0392503 -0.416138E-05  0.230E-02    3.43       1.0  T
   3   -249.0392468  0.349428E-05  0.582E-03    3.44       1.5  T
   4   -249.0392516 -0.482385E-05  0.157E-03    3.43       5.4  T
   5   -249.0392517 -0.142192E-06  0.811E-04    3.43      10.5  T
   6   -249.0392518 -0.167561E-07  0.309E-04    3.43      27.7  T
     SCC iter.                  ...        0 min,  0.263 sec
     gradient                   ...        0 min,  0.040 sec
 * total energy  :  -247.0056556 Eh     change       -0.5734533E-03 Eh
   gradient norm :     0.0068114 Eh/α   predicted    -0.4322917E-03 ( -24.62%)
   displ. norm   :     0.5501997 α      lambda       -0.8367586E-03
   maximum displ.:     0.3042654 α      in ANC's #3, #10, #4, ...

........................................................................
.............................. CYCLE   35 ..............................
........................................................................
   1   -249.0360380 -0.249036E+03  0.618E-02    3.44       0.0  T
   2   -249.0360494 -0.114629E-04  0.372E-02    3.44       1.0  T
   3   -249.0360384  0.110642E-04  0.101E-02    3.44       1.0  T
   4   -249.0360535 -0.150957E-04  0.261E-03    3.44       3.3  T
   5   -249.0360538 -0.359226E-06  0.136E-03    3.44       6.3  T
   6   -249.0360539 -0.416651E-07  0.496E-04    3.44      17.2  T
   7   -249.0360539 -0.456546E-08  0.159E-04    3.44      53.9  T
     SCC iter.                  ...        0 min,  0.322 sec
     gradient                   ...        0 min,  0.043 sec
 * total energy  :  -247.0061876 Eh     change       -0.5319238E-03 Eh
   gradient norm :     0.0148972 Eh/α   predicted    -0.5449812E-03 (   2.45%)
   displ. norm   :     0.3451684 α      lambda       -0.5755095E-03
   maximum displ.:     0.1928301 α      in ANC's #3, #10, #4, ...

........................................................................
.............................. CYCLE   36 ..............................
........................................................................
   1   -249.0384609 -0.249038E+03  0.341E-02    3.45       0.0  T
   2   -249.0384633 -0.243293E-05  0.202E-02    3.44       1.0  T
   3   -249.0384610  0.226164E-05  0.449E-03    3.45       1.9  T
   4   -249.0384640 -0.295008E-05  0.113E-03    3.44       7.6  T
   5   -249.0384641 -0.812793E-07  0.554E-04    3.44      15.4  T
   6   -249.0384641 -0.922819E-08  0.222E-04    3.44      38.5  T
     SCC iter.                  ...        0 min,  0.239 sec
     gradient                   ...        0 min,  0.037 sec
 * total energy  :  -247.0066316 Eh     change       -0.4440304E-03 Eh
   gradient norm :     0.0089076 Eh/α   predicted    -0.3220415E-03 ( -27.47%)
   displ. norm   :     0.5263941 α      lambda       -0.7242982E-03
   maximum displ.:     0.2854269 α      in ANC's #3, #4, #10, ...

........................................................................
.............................. CYCLE   37 ..............................
........................................................................
   1   -249.0422558 -0.249042E+03  0.492E-02    3.45       0.0  T
   2   -249.0422607 -0.488773E-05  0.295E-02    3.45       1.0  T
   3   -249.0422536  0.714683E-05  0.737E-03    3.45       1.2  T
   4   -249.0422626 -0.900222E-05  0.157E-03    3.45       5.5  T
   5   -249.0422627 -0.123735E-06  0.837E-04    3.45      10.2  T
   6   -249.0422627 -0.135549E-07  0.280E-04    3.45      30.5  T
     SCC iter.                  ...        0 min,  0.226 sec
     gradient                   ...        0 min,  0.036 sec
 * total energy  :  -247.0071734 Eh     change       -0.5417633E-03 Eh
   gradient norm :     0.0087373 Eh/α   predicted    -0.4625060E-03 ( -14.63%)
   displ. norm   :     0.5536556 α      lambda       -0.6311941E-03
   maximum displ.:     0.2919603 α      in ANC's #3, #4, #10, ...

........................................................................
.............................. CYCLE   38 ..............................
........................................................................
   1   -249.0424857 -0.249042E+03  0.485E-02    3.46       0.0  T
   2   -249.0424910 -0.531430E-05  0.289E-02    3.45       1.0  T
   3   -249.0424813  0.963352E-05  0.853E-03    3.45       1.0  T
   4   -249.0424932 -0.118897E-04  0.154E-03    3.45       5.5  T
   5   -249.0424933 -0.986182E-07  0.738E-04    3.45      11.6  T
   6   -249.0424933 -0.110413E-07  0.295E-04    3.45      29.0  T
     SCC iter.                  ...        0 min,  0.231 sec
     gradient                   ...        0 min,  0.037 sec
 * total energy  :  -247.0076657 Eh     change       -0.4923081E-03 Eh
   gradient norm :     0.0078298 Eh/α   predicted    -0.4123456E-03 ( -16.24%)
   displ. norm   :     0.5837662 α      lambda       -0.5322600E-03
   maximum displ.:     0.3045880 α      in ANC's #3, #4, #6, ...

........................................................................
.............................. CYCLE   39 ..............................
........................................................................
   1   -249.0406078 -0.249041E+03  0.475E-02    3.45       0.0  T
   2   -249.0406131 -0.538059E-05  0.283E-02    3.45       1.0  T
   3   -249.0406016  0.115173E-04  0.929E-03    3.45       1.0  T
   4   -249.0406159 -0.142593E-04  0.152E-03    3.45       5.6  T
   5   -249.0406160 -0.684437E-07  0.778E-04    3.45      11.0  T
   6   -249.0406160 -0.103031E-07  0.296E-04    3.45      28.9  T
     SCC iter.                  ...        0 min,  0.226 sec
     gradient                   ...        0 min,  0.036 sec
 * total energy  :  -247.0080839 Eh     change       -0.4182488E-03 Eh
   gradient norm :     0.0083067 Eh/α   predicted    -0.3568290E-03 ( -14.68%)
   displ. norm   :     0.5917975 α      lambda       -0.7066601E-03
   maximum displ.:     0.2331932 α      in ANC's #4, #3, #6, ...

........................................................................
.............................. CYCLE   40 ..............................
........................................................................
   1   -249.0444288 -0.249044E+03  0.521E-02    3.45       0.0  T
   2   -249.0444377 -0.886183E-05  0.312E-02    3.45       1.0  T
   3   -249.0444332  0.446219E-05  0.768E-03    3.45       1.1  T
   4   -249.0444399 -0.671016E-05  0.223E-03    3.45       3.8  T
   5   -249.0444402 -0.318411E-06  0.108E-03    3.45       7.9  T
   6   -249.0444403 -0.394647E-07  0.464E-04    3.45      18.4  T
   7   -249.0444403 -0.313963E-08  0.144E-04    3.45      59.3  T
     SCC iter.                  ...        0 min,  0.296 sec
     gradient                   ...        0 min,  0.039 sec
 * total energy  :  -247.0083813 Eh     change       -0.2973562E-03 Eh
   gradient norm :     0.0193157 Eh/α   predicted    -0.4770753E-03 (  60.44%)
   displ. norm   :     0.4492477 α      lambda       -0.6514679E-03
   maximum displ.:     0.2307203 α      in ANC's #3, #4, #6, ...

........................................................................
.............................. CYCLE   41 ..............................
........................................................................
   1   -249.0399577 -0.249040E+03  0.370E-02    3.45       0.0  T
   2   -249.0399613 -0.363182E-05  0.221E-02    3.45       1.0  T
   3   -249.0399543  0.700881E-05  0.729E-03    3.45       1.2  T
   4   -249.0399632 -0.886193E-05  0.133E-03    3.45       6.4  T
   5   -249.0399632 -0.509438E-07  0.717E-04    3.45      11.9  T
   6   -249.0399632 -0.786642E-08  0.245E-04    3.45      34.8  T
     SCC iter.                  ...        0 min,  0.276 sec
     gradient                   ...        0 min,  0.040 sec
 * total energy  :  -247.0088305 Eh     change       -0.4492549E-03 Eh
   gradient norm :     0.0083999 Eh/α   predicted    -0.3914761E-03 ( -12.86%)
   displ. norm   :     0.3728765 α      lambda       -0.4674923E-03
   maximum displ.:     0.1513907 α      in ANC's #3, #4, #6, ...

........................................................................
.............................. CYCLE   42 ..............................
........................................................................
   1   -249.0406862 -0.249041E+03  0.334E-02    3.45       0.0  T
   2   -249.0406887 -0.246406E-05  0.200E-02    3.45       1.0  T
   3   -249.0406867  0.195644E-05  0.429E-03    3.45       2.0  T
   4   -249.0406893 -0.258127E-05  0.111E-03    3.45       7.7  T
   5   -249.0406894 -0.949533E-07  0.533E-04    3.45      16.0  T
   6   -249.0406894 -0.881047E-08  0.225E-04    3.45      38.0  T
     SCC iter.                  ...        0 min,  0.280 sec
     gradient                   ...        0 min,  0.042 sec
 * total energy  :  -247.0091956 Eh     change       -0.3650956E-03 Eh
   gradient norm :     0.0089936 Eh/α   predicted    -0.2662493E-03 ( -27.07%)
   displ. norm   :     0.5041422 α      lambda       -0.5846491E-03
   maximum displ.:     0.1876164 α      in ANC's #6, #4, #5, ...
 * RMSD in coord.:     0.5400731 α      energy gain  -0.1533605E-01 Eh

generating ANC from model Hessian ...
Using Lindh-Hessian (1995)
 Shifting diagonal of input Hessian by    9.8647536415581681E-003
 Lowest  eigenvalues of input Hessian
    0.000000    0.000000    0.000000    0.000000    0.000000    0.000000
    0.010000    0.010060    0.010278    0.010354    0.010452    0.010693
    0.010938    0.011059    0.011290    0.011365    0.011506    0.011809
 Highest eigenvalues
    1.876663    1.984434    2.098410    2.108239    2.217200    2.350352


........................................................................
.............................. CYCLE   43 ..............................
........................................................................
   1   -249.0421195 -0.249042E+03  0.507E-02    3.45       0.0  T
   2   -249.0421246 -0.512551E-05  0.305E-02    3.45       1.0  T
   3   -249.0421202  0.440135E-05  0.653E-03    3.45       1.3  T
   4   -249.0421263 -0.606765E-05  0.169E-03    3.45       5.1  T
   5   -249.0421264 -0.159127E-06  0.883E-04    3.45       9.7  T
   6   -249.0421264 -0.236896E-07  0.349E-04    3.45      24.5  T
     SCC iter.                  ...        0 min,  0.297 sec
     gradient                   ...        0 min,  0.039 sec
 * total energy  :  -247.0096240 Eh     change       -0.4284004E-03 Eh
   gradient norm :     0.0089437 Eh/α   predicted     0.0000000E+00 (-100.00%)
   displ. norm   :     0.1001276 α      lambda       -0.2567660E-03
   maximum displ.:     0.0392491 α      in ANC's #5, #7, #6, ...

........................................................................
.............................. CYCLE   44 ..............................
........................................................................
   1   -249.0434309 -0.249043E+03  0.143E-02    3.45       0.0  T
   2   -249.0434320 -0.101702E-05  0.853E-03    3.45       1.0  T
   3   -249.0434312  0.714683E-06  0.306E-03    3.45       2.8  T
   4   -249.0434322 -0.984573E-06  0.636E-04    3.45      13.4  T
   5   -249.0434323 -0.346363E-07  0.294E-04    3.45      29.1  T
     SCC iter.                  ...        0 min,  0.233 sec
     gradient                   ...        0 min,  0.038 sec
 * total energy  :  -247.0098427 Eh     change       -0.2186674E-03 Eh
   gradient norm :     0.0045446 Eh/α   predicted    -0.1296704E-03 ( -40.70%)
   displ. norm   :     0.3353176 α      lambda       -0.5578850E-03
   maximum displ.:     0.1413330 α      in ANC's #5, #7, #6, ...

........................................................................
.............................. CYCLE   45 ..............................
........................................................................
   1   -249.0439719 -0.249044E+03  0.399E-02    3.45       0.0  T
   2   -249.0439791 -0.719826E-05  0.239E-02    3.45       1.0  T
   3   -249.0439722  0.685139E-05  0.909E-03    3.45       1.0  T
   4   -249.0439816 -0.931389E-05  0.166E-03    3.45       5.1  T
   5   -249.0439818 -0.196225E-06  0.813E-04    3.45      10.5  T
   6   -249.0439818 -0.176257E-07  0.330E-04    3.45      25.9  T
     SCC iter.                  ...        0 min,  0.281 sec
     gradient                   ...        0 min,  0.038 sec
 * total energy  :  -247.0102271 Eh     change       -0.3844295E-03 Eh
   gradient norm :     0.0049276 Eh/α   predicted    -0.3103125E-03 ( -19.28%)
   displ. norm   :     0.3043531 α      lambda       -0.2627819E-03
   maximum displ.:     0.1413175 α      in ANC's #5, #6, #7, ...

........................................................................
.............................. CYCLE   46 ..............................
........................................................................
   1   -249.0431778 -0.249043E+03  0.310E-02    3.45       0.0  T
   2   -249.0431810 -0.313122E-05  0.186E-02    3.45       1.0  T
   3   -249.0431767  0.427343E-05  0.655E-03    3.45       1.3  T
   4   -249.0431823 -0.559174E-05  0.115E-03    3.45       7.4  T
   5   -249.0431823 -0.670628E-07  0.611E-04    3.45      14.0  T
   6   -249.0431824 -0.940247E-08  0.222E-04    3.45      38.5  T
     SCC iter.                  ...        0 min,  0.384 sec
     gradient                   ...        0 min,  0.050 sec
 * total energy  :  -247.0104312 Eh     change       -0.2041069E-03 Eh
   gradient norm :     0.0073119 Eh/α   predicted    -0.1435624E-03 ( -29.66%)
   displ. norm   :     0.3804666 α      lambda       -0.3031588E-03
   maximum displ.:     0.1868630 α      in ANC's #5, #6, #7, ...

........................................................................
.............................. CYCLE   47 ..............................
........................................................................
   1   -249.0427667 -0.249043E+03  0.342E-02    3.45       0.0  T
   2   -249.0427695 -0.279702E-05  0.205E-02    3.44       1.0  T
   3   -249.0427653  0.421216E-05  0.619E-03    3.44       1.4  T
   4   -249.0427707 -0.543953E-05  0.118E-03    3.44       7.2  T
   5   -249.0427708 -0.548691E-07  0.649E-04    3.44      13.2  T
   6   -249.0427708 -0.114397E-07  0.217E-04    3.44      39.4  T
     SCC iter.                  ...        0 min,  0.287 sec
     gradient                   ...        0 min,  0.040 sec
 * total energy  :  -247.0106848 Eh     change       -0.2535194E-03 Eh
   gradient norm :     0.0064141 Eh/α   predicted    -0.1735245E-03 ( -31.55%)
   displ. norm   :     0.4757015 α      lambda       -0.3861485E-03
   maximum displ.:     0.2414327 α      in ANC's #5, #6, #4, ...

........................................................................
.............................. CYCLE   48 ..............................
........................................................................
   1   -249.0433118 -0.249043E+03  0.399E-02    3.45       0.0  T
   2   -249.0433151 -0.325694E-05  0.238E-02    3.44       1.0  T
   3   -249.0433105  0.463331E-05  0.636E-03    3.44       1.3  T
   4   -249.0433165 -0.598565E-05  0.133E-03    3.44       6.4  T
   5   -249.0433165 -0.669824E-07  0.706E-04    3.44      12.1  T
   6   -249.0433165 -0.150139E-07  0.257E-04    3.44      33.2  T
     SCC iter.                  ...        0 min,  0.246 sec
     gradient                   ...        0 min,  0.037 sec
 * total energy  :  -247.0110072 Eh     change       -0.3224583E-03 Eh
   gradient norm :     0.0050172 Eh/α   predicted    -0.2367654E-03 ( -26.57%)
   displ. norm   :     0.5767280 α      lambda       -0.3952172E-03
   maximum displ.:     0.2934540 α      in ANC's #5, #6, #4, ...

........................................................................
.............................. CYCLE   49 ..............................
........................................................................
   1   -249.0433823 -0.249043E+03  0.471E-02    3.45       0.0  T
   2   -249.0433864 -0.405032E-05  0.280E-02    3.44       1.0  T
   3   -249.0433796  0.679224E-05  0.751E-03    3.44       1.1  T
   4   -249.0433882 -0.860821E-05  0.145E-03    3.44       5.9  T
   5   -249.0433883 -0.735352E-07  0.781E-04    3.44      10.9  T
   6   -249.0433883 -0.178112E-07  0.267E-04    3.44      32.0  T
     SCC iter.                  ...        0 min,  0.260 sec
     gradient                   ...        0 min,  0.039 sec
 * total energy  :  -247.0113491 Eh     change       -0.3418581E-03 Eh
   gradient norm :     0.0056105 Eh/α   predicted    -0.2633403E-03 ( -22.97%)
   displ. norm   :     0.6063448 α      lambda       -0.4177911E-03
   maximum displ.:     0.3142084 α      in ANC's #5, #6, #4, ...

........................................................................
.............................. CYCLE   50 ..............................
........................................................................
   1   -249.0448670 -0.249045E+03  0.473E-02    3.45       0.0  T
   2   -249.0448711 -0.408275E-05  0.280E-02    3.44       1.0  T
   3   -249.0448650  0.609310E-05  0.716E-03    3.45       1.2  T
   4   -249.0448728 -0.775118E-05  0.146E-03    3.44       5.9  T
   5   -249.0448729 -0.845782E-07  0.764E-04    3.44      11.2  T
   6   -249.0448729 -0.168425E-07  0.285E-04    3.44      29.9  T
     SCC iter.                  ...        0 min,  0.285 sec
     gradient                   ...        0 min,  0.041 sec
 * total energy  :  -247.0117070 Eh     change       -0.3579715E-03 Eh
   gradient norm :     0.0083069 Eh/α   predicted    -0.2857376E-03 ( -20.18%)
   displ. norm   :     0.6579503 α      lambda       -0.4346067E-03
   maximum displ.:     0.3401201 α      in ANC's #5, #6, #4, ...

........................................................................
.............................. CYCLE   51 ..............................
........................................................................
   1   -249.0448131 -0.249045E+03  0.517E-02    3.45       0.0  T
   2   -249.0448185 -0.531005E-05  0.306E-02    3.44       1.0  T
   3   -249.0448105  0.795286E-05  0.830E-03    3.45       1.0  T
   4   -249.0448206 -0.100956E-04  0.159E-03    3.44       5.4  T
   5   -249.0448207 -0.114128E-06  0.862E-04    3.44       9.9  T
   6   -249.0448207 -0.190703E-07  0.304E-04    3.44      28.1  T
     SCC iter.                  ...        0 min,  0.290 sec
     gradient                   ...        0 min,  0.043 sec
 * total energy  :  -247.0120786 Eh     change       -0.3715268E-03 Eh
   gradient norm :     0.0078986 Eh/α   predicted    -0.3113758E-03 ( -16.19%)
   displ. norm   :     0.6297131 α      lambda       -0.4882854E-03
   maximum displ.:     0.3307678 α      in ANC's #5, #6, #4, ...

........................................................................
.............................. CYCLE   52 ..............................
........................................................................
   1   -249.0483676 -0.249048E+03  0.507E-02    3.45       0.0  T
   2   -249.0483730 -0.542902E-05  0.299E-02    3.45       1.0  T
   3   -249.0483668  0.623791E-05  0.758E-03    3.45       1.1  T
   4   -249.0483748 -0.805275E-05  0.164E-03    3.45       5.2  T
   5   -249.0483750 -0.146950E-06  0.853E-04    3.45      10.0  T
   6   -249.0483750 -0.202923E-07  0.330E-04    3.45      25.9  T
     SCC iter.                  ...        0 min,  0.290 sec
     gradient                   ...        0 min,  0.040 sec
 * total energy  :  -247.0124444 Eh     change       -0.3658532E-03 Eh
   gradient norm :     0.0084443 Eh/α   predicted    -0.3409602E-03 (  -6.80%)
   displ. norm   :     0.6206786 α      lambda       -0.4078865E-03
   maximum displ.:     0.3215339 α      in ANC's #5, #4, #6, ...

........................................................................
.............................. CYCLE   53 ..............................
........................................................................
   1   -249.0462882 -0.249046E+03  0.528E-02    3.45       0.0  T
   2   -249.0462944 -0.622421E-05  0.311E-02    3.45       1.0  T
   3   -249.0462876  0.683014E-05  0.816E-03    3.45       1.0  T
   4   -249.0462964 -0.886185E-05  0.168E-03    3.45       5.1  T
   5   -249.0462966 -0.165178E-06  0.899E-04    3.45       9.5  T
   6   -249.0462966 -0.206136E-07  0.323E-04    3.45      26.4  T
     SCC iter.                  ...        0 min,  0.290 sec
     gradient                   ...        0 min,  0.043 sec
 * total energy  :  -247.0127301 Eh     change       -0.2857304E-03 Eh
   gradient norm :     0.0068784 Eh/α   predicted    -0.2825119E-03 (  -1.13%)
   displ. norm   :     0.4058111 α      lambda       -0.2490715E-03
   maximum displ.:     0.2045974 α      in ANC's #5, #4, #12, ...

........................................................................
.............................. CYCLE   54 ..............................
........................................................................
   1   -249.0470240 -0.249047E+03  0.390E-02    3.45       0.0  T
   2   -249.0470267 -0.268383E-05  0.231E-02    3.45       1.0  T
   3   -249.0470243  0.231841E-05  0.490E-03    3.45       1.7  T
   4   -249.0470275 -0.315429E-05  0.119E-03    3.45       7.2  T
   5   -249.0470276 -0.689818E-07  0.645E-04    3.45      13.2  T
   6   -249.0470276 -0.137667E-07  0.247E-04    3.45      34.5  T
     SCC iter.                  ...        0 min,  0.294 sec
     gradient                   ...        0 min,  0.042 sec
 * total energy  :  -247.0129007 Eh     change       -0.1705948E-03 Eh
   gradient norm :     0.0048702 Eh/α   predicted    -0.1450455E-03 ( -14.98%)
   displ. norm   :     0.3177052 α      lambda       -0.1460569E-03
   maximum displ.:     0.1500560 α      in ANC's #5, #4, #1, ...

........................................................................
.............................. CYCLE   55 ..............................
........................................................................
   1   -249.0463189 -0.249046E+03  0.321E-02    3.45       0.0  T
   2   -249.0463206 -0.170809E-05  0.190E-02    3.45       1.0  T
   3   -249.0463188  0.181720E-05  0.399E-03    3.45       2.1  T
   4   -249.0463212 -0.236796E-05  0.953E-04    3.45       9.0  T
   5   -249.0463212 -0.497888E-07  0.503E-04    3.45      17.0  T
   6   -249.0463212 -0.717466E-08  0.189E-04    3.45      45.2  T
     SCC iter.                  ...        0 min,  0.289 sec
     gradient                   ...        0 min,  0.042 sec
 * total energy  :  -247.0130112 Eh     change       -0.1104258E-03 Eh
   gradient norm :     0.0045774 Eh/α   predicted    -0.8039986E-04 ( -27.19%)
   displ. norm   :     0.2676288 α      lambda       -0.1722669E-03
   maximum displ.:     0.0892401 α      in ANC's #8, #11, #12, ...

........................................................................
.............................. CYCLE   56 ..............................
........................................................................
   1   -249.0476812 -0.249048E+03  0.327E-02    3.46       0.0  T
   2   -249.0476834 -0.213023E-05  0.195E-02    3.46       1.0  T
   3   -249.0476801  0.322793E-05  0.527E-03    3.46       1.6  T
   4   -249.0476842 -0.409187E-05  0.102E-03    3.46       8.4  T
   5   -249.0476843 -0.473360E-07  0.535E-04    3.46      16.0  T
   6   -249.0476843 -0.657280E-08  0.208E-04    3.46      41.2  T
     SCC iter.                  ...        0 min,  0.286 sec
     gradient                   ...        0 min,  0.042 sec
 * total energy  :  -247.0131266 Eh     change       -0.1153848E-03 Eh
   gradient norm :     0.0048661 Eh/α   predicted    -0.9230913E-04 ( -20.00%)
   displ. norm   :     0.3010921 α      lambda       -0.1350052E-03
   maximum displ.:     0.1105802 α      in ANC's #5, #4, #8, ...

........................................................................
.............................. CYCLE   57 ..............................
........................................................................
   1   -249.0448037 -0.249045E+03  0.340E-02    3.46       0.0  T
   2   -249.0448057 -0.199662E-05  0.203E-02    3.45       1.0  T
   3   -249.0448046  0.110178E-05  0.381E-03    3.46       2.2  T
   4   -249.0448063 -0.169088E-05  0.111E-03    3.45       7.7  T
   5   -249.0448064 -0.519448E-07  0.591E-04    3.45      14.5  T
   6   -249.0448064 -0.101105E-07  0.202E-04    3.45      42.3  T
     SCC iter.                  ...        0 min,  0.288 sec
     gradient                   ...        0 min,  0.042 sec
 * total energy  :  -247.0132082 Eh     change       -0.8163887E-04 Eh
   gradient norm :     0.0050614 Eh/α   predicted    -0.7362314E-04 (  -9.82%)
   displ. norm   :     0.1758834 α      lambda       -0.1050359E-03
   maximum displ.:     0.0774309 α      in ANC's #8, #6, #25, ...

........................................................................
.............................. CYCLE   58 ..............................
........................................................................
   1   -249.0467474 -0.249047E+03  0.204E-02    3.46       0.0  T
   2   -249.0467487 -0.126014E-05  0.123E-02    3.46       1.0  T
   3   -249.0467468  0.190758E-05  0.423E-03    3.46       2.0  T
   4   -249.0467492 -0.243924E-05  0.715E-04    3.46      11.9  T
   5   -249.0467492 -0.264916E-07  0.375E-04    3.46      22.8  T
   6   -249.0467492 -0.255753E-08  0.145E-04    3.46      58.7  T
     SCC iter.                  ...        0 min,  0.290 sec
     gradient                   ...        0 min,  0.041 sec
 * total energy  :  -247.0132802 Eh     change       -0.7198207E-04 Eh
   gradient norm :     0.0043852 Eh/α   predicted    -0.5414550E-04 ( -24.78%)
   displ. norm   :     0.1680813 α      lambda       -0.8161285E-04
   maximum displ.:     0.0809623 α      in ANC's #8, #4, #25, ...

........................................................................
.............................. CYCLE   59 ..............................
........................................................................
   1   -249.0471364 -0.249047E+03  0.188E-02    3.45       0.0  T
   2   -249.0471373 -0.920424E-06  0.113E-02    3.46       1.0  T
   3   -249.0471366  0.687495E-06  0.264E-03    3.45       3.2  T
   4   -249.0471376 -0.926288E-06  0.718E-04    3.46      11.9  T
   5   -249.0471376 -0.395697E-07  0.344E-04    3.46      24.8  T
     SCC iter.                  ...        0 min,  0.250 sec
     gradient                   ...        0 min,  0.044 sec
 * total energy  :  -247.0133409 Eh     change       -0.6075315E-04 Eh
   gradient norm :     0.0031787 Eh/α   predicted    -0.4195935E-04 ( -30.93%)
   displ. norm   :     0.1653272 α      lambda       -0.6530402E-04
   maximum displ.:     0.0835584 α      in ANC's #8, #4, #1, ...

........................................................................
.............................. CYCLE   60 ..............................
........................................................................
   1   -249.0473912 -0.249047E+03  0.174E-02    3.45       0.0  T
   2   -249.0473923 -0.100775E-05  0.105E-02    3.45       1.0  T
   3   -249.0473915  0.758242E-06  0.275E-03    3.45       3.1  T
   4   -249.0473925 -0.998930E-06  0.711E-04    3.45      12.0  T
   5   -249.0473925 -0.441248E-07  0.329E-04    3.45      26.0  T
     SCC iter.                  ...        0 min,  0.252 sec
     gradient                   ...        0 min,  0.041 sec
 * total energy  :  -247.0133863 Eh     change       -0.4536653E-04 Eh
   gradient norm :     0.0025432 Eh/α   predicted    -0.3354655E-04 ( -26.05%)
   displ. norm   :     0.1478641 α      lambda       -0.3607335E-04
   maximum displ.:     0.0732894 α      in ANC's #8, #4, #1, ...

........................................................................
.............................. CYCLE   61 ..............................
........................................................................
   1   -249.0472058 -0.249047E+03  0.148E-02    3.45       0.0  T
   2   -249.0472063 -0.506408E-06  0.889E-03    3.45       1.0  T
   3   -249.0472059  0.368779E-06  0.194E-03    3.45       4.4  T
   4   -249.0472065 -0.507353E-06  0.529E-04    3.45      16.1  T
   5   -249.0472065 -0.180102E-07  0.266E-04    3.45      32.1  T
     SCC iter.                  ...        0 min,  0.225 sec
     gradient                   ...        0 min,  0.039 sec
 * total energy  :  -247.0134136 Eh     change       -0.2727882E-04 Eh
   gradient norm :     0.0022992 Eh/α   predicted    -0.1843184E-04 ( -32.43%)
   displ. norm   :     0.1434659 α      lambda       -0.3578329E-04
   maximum displ.:     0.0753642 α      in ANC's #8, #4, #1, ...

........................................................................
.............................. CYCLE   62 ..............................
........................................................................
   1   -249.0472608 -0.249047E+03  0.137E-02    3.45       0.0  T
   2   -249.0472612 -0.452727E-06  0.828E-03    3.45       1.0  T
   3   -249.0472609  0.339509E-06  0.187E-03    3.45       4.6  T
   4   -249.0472613 -0.466421E-06  0.486E-04    3.45      17.6  T
   5   -249.0472614 -0.136633E-07  0.249E-04    3.45      34.3  T
     SCC iter.                  ...        0 min,  0.208 sec
     gradient                   ...        0 min,  0.038 sec
 * total energy  :  -247.0134399 Eh     change       -0.2627742E-04 Eh
   gradient norm :     0.0020811 Eh/α   predicted    -0.1826309E-04 ( -30.50%)
   displ. norm   :     0.1418097 α      lambda       -0.2971012E-04
   maximum displ.:     0.0754194 α      in ANC's #8, #4, #1, ...

........................................................................
.............................. CYCLE   63 ..............................
........................................................................
   1   -249.0471034 -0.249047E+03  0.137E-02    3.45       0.0  T
   2   -249.0471038 -0.349597E-06  0.827E-03    3.45       1.0  T
   3   -249.0471036  0.182085E-06  0.147E-03    3.45       5.8  T
   4   -249.0471039 -0.279780E-06  0.462E-04    3.45      18.5  T
   5   -249.0471039 -0.106206E-07  0.233E-04    3.45      36.7  T
     SCC iter.                  ...        0 min,  0.202 sec
     gradient                   ...        0 min,  0.036 sec
 * total energy  :  -247.0134614 Eh     change       -0.2156978E-04 Eh
   gradient norm :     0.0021450 Eh/α   predicted    -0.1515464E-04 ( -29.74%)
   displ. norm   :     0.1232476 α      lambda       -0.2660150E-04
   maximum displ.:     0.0660222 α      in ANC's #8, #4, #6, ...

........................................................................
.............................. CYCLE   64 ..............................
........................................................................
   1   -249.0473766 -0.249047E+03  0.111E-02    3.45       0.0  T
   2   -249.0473769 -0.296351E-06  0.670E-03    3.45       1.3  T
   3   -249.0473768  0.885163E-07  0.123E-03    3.45       7.0  T
   4   -249.0473769 -0.161067E-06  0.407E-04    3.45      21.0  T
   5   -249.0473770 -0.813617E-08  0.212E-04    3.45      40.3  T
     SCC iter.                  ...        0 min,  0.224 sec
     gradient                   ...        0 min,  0.041 sec
 * total energy  :  -247.0134794 Eh     change       -0.1799828E-04 Eh
   gradient norm :     0.0021002 Eh/α   predicted    -0.1350383E-04 ( -24.97%)
   displ. norm   :     0.1183593 α      lambda       -0.2074289E-04
   maximum displ.:     0.0621797 α      in ANC's #8, #4, #6, ...

........................................................................
.............................. CYCLE   65 ..............................
........................................................................
   1   -249.0471976 -0.249047E+03  0.113E-02    3.45       0.0  T
   2   -249.0471979 -0.261387E-06  0.678E-03    3.45       1.3  T
   3   -249.0471978  0.733332E-07  0.123E-03    3.45       7.0  T
   4   -249.0471979 -0.142947E-06  0.400E-04    3.45      21.4  T
[...]
    35   1 H    0.997 --    23 C    0.964
    36   1 H    0.892 --    24 O    0.874
    37   1 H    0.892 --    25 O    0.853
    38   1 H    0.903 --    28 O    0.868
    39   6 C    3.930 --    67 O    0.983    48 O    0.974    40 C    0.955
                            50 H    0.946
    40   6 C    3.962 --    45 O    0.997    41 C    0.974    51 H    0.956
                            39 C    0.955
    41   6 C    3.964 --    46 O    1.003    40 C    0.974    42 C    0.964
                            52 H    0.952
    42   6 C    3.937 --    43 C    0.965    41 C    0.964    47 O    0.955
                            53 H    0.955
    43   6 C    3.939 --    44 C    0.969    42 C    0.965    48 O    0.961
                            54 H    0.954
    44   6 C    3.961 --    49 O    1.023    43 C    0.969    55 H    0.967
                            56 H    0.966
    45   8 O    1.970 --    40 C    0.997    57 H    0.867
    46   8 O    1.949 --    41 C    1.003   127 H    0.854
    47   8 O    2.101 --    18 C    0.986    42 C    0.955
    48   8 O    2.082 --    39 C    0.974    43 C    0.961
    49   8 O    1.962 --    44 C    1.023    58 H    0.857
    50   1 H    0.996 --    39 C    0.946
    51   1 H    0.998 --    40 C    0.956
    52   1 H    0.997 --    41 C    0.952
    53   1 H    0.999 --    42 C    0.955
    54   1 H    0.997 --    43 C    0.954
    55   1 H    0.999 --    44 C    0.967
    56   1 H    0.994 --    44 C    0.966
    57   1 H    0.890 --    45 O    0.867
    58   1 H    0.903 --    49 O    0.857
    59   6 C    3.927 --    84 O    0.981    68 O    0.976    60 C    0.953
                            69 H    0.945
    60   6 C    3.962 --    65 O    0.998    61 C    0.972    70 H    0.957
                            59 C    0.953
    61   6 C    3.963 --    66 O    1.003    60 C    0.972    62 C    0.960
                            71 H    0.956
    62   6 C    3.941 --    63 C    0.966    67 O    0.960    61 C    0.960
                            72 H    0.957
    63   6 C    3.932 --    64 C    0.990    62 C    0.966    68 O    0.954
                            73 H    0.932
    64   6 C    3.970 --    63 C    0.990   121 N    0.990   124 H    0.960
                           123 H    0.959
    65   8 O    1.966 --    60 C    0.998    74 H    0.874
    66   8 O    1.949 --    61 C    1.003    75 H    0.849
    67   8 O    2.099 --    39 C    0.983    62 C    0.960
    68   8 O    2.092 --    59 C    0.976    63 C    0.954
    69   1 H    0.995 --    59 C    0.945
    70   1 H    0.998 --    60 C    0.957
    71   1 H    0.998 --    61 C    0.956
    72   1 H    0.998 --    62 C    0.957
    73   1 H    0.989 --    63 C    0.932
    74   1 H    0.894 --    65 O    0.874
    75   1 H    0.892 --    66 O    0.849
    76   6 C    3.928 --   105 O    0.982    85 O    0.973    77 C    0.954
                            87 H    0.946
    77   6 C    3.962 --    82 O    0.998    78 C    0.974    88 H    0.957
                            76 C    0.954
    78   6 C    3.963 --    83 O    1.004    77 C    0.974    79 C    0.964
                            89 H    0.950
    79   6 C    3.942 --    80 C    0.966    78 C    0.964    84 O    0.962
                            90 H    0.957
    80   6 C    3.925 --    81 C    0.972    79 C    0.966    91 H    0.952
                            85 O    0.942
    81   6 C    3.958 --    86 O    1.020    80 C    0.972    92 H    0.968
                            93 H    0.964
    82   8 O    1.960 --    77 C    0.998    94 H    0.875
    83   8 O    1.948 --    78 C    1.004    95 H    0.856
    84   8 O    2.103 --    59 C    0.981    79 C    0.962
    85   8 O    2.103 --    76 C    0.973    80 C    0.942
    86   8 O    1.968 --    81 C    1.020    96 H    0.872
    87   1 H    0.997 --    76 C    0.946
    88   1 H    0.998 --    77 C    0.957
    89   1 H    0.997 --    78 C    0.950
    90   1 H    0.998 --    79 C    0.957
    91   1 H    0.995 --    80 C    0.952
    92   1 H    0.996 --    81 C    0.968
    93   1 H    0.997 --    81 C    0.964
    94   1 H    0.893 --    82 O    0.875
    95   1 H    0.892 --    83 O    0.856
    96   1 H    0.901 --    86 O    0.872
    97   6 C    3.929 --   106 O    0.980     9 O    0.974    98 C    0.955
                           108 H    0.947
    98   6 C    3.961 --   103 O    0.996    99 C    0.974   109 H    0.956
                            97 C    0.955
    99   6 C    3.964 --   104 O    1.003    98 C    0.974   100 C    0.964
                           110 H    0.951
   100   6 C    3.940 --   101 C    0.964    99 C    0.964   105 O    0.960
                           111 H    0.955
   101   6 C    3.938 --   102 C    0.969   100 C    0.964   106 O    0.959
                           112 H    0.944
   102   6 C    3.962 --   107 O    1.025   101 C    0.969   113 H    0.967
                           114 H    0.965
   103   8 O    1.969 --    98 C    0.996   115 H    0.867
   104   8 O    1.950 --    99 C    1.003   116 H    0.860
   105   8 O    2.103 --    76 C    0.982   100 C    0.960
   106   8 O    2.086 --    97 C    0.980   101 C    0.959
   107   8 O    1.960 --   102 C    1.025   117 H    0.853
   108   1 H    0.996 --    97 C    0.947
   109   1 H    0.998 --    98 C    0.956
   110   1 H    0.997 --    99 C    0.951
   111   1 H    0.998 --   100 C    0.955
   112   1 H    0.997 --   101 C    0.944
   113   1 H    0.999 --   102 C    0.967
   114   1 H    0.994 --   102 C    0.965
   115   1 H    0.889 --   103 O    0.867
   116   1 H    0.892 --   104 O    0.860
   117   1 H    0.901 --   107 O    0.853
   118   6 C    3.962 --   129 C    1.384   119 C    1.263   120 N    1.112
   119   6 C    3.958 --   128 C    1.388   118 C    1.263   121 N    1.107
   120   7 N    3.510 --   118 C    1.112   122 C    1.081     6 C    1.005
                           130 N    0.133
   121   7 N    3.525 --   122 C    1.134   119 C    1.107    64 C    0.990
                           130 N    0.109
   122   6 C    3.955 --   130 N    1.632   121 N    1.134   120 N    1.081
   123   1 H    0.993 --    64 C    0.959
   124   1 H    0.994 --    64 C    0.960
   125   1 H    0.994 --     6 C    0.963
   126   1 H    0.994 --     6 C    0.952
   127   1 H    0.893 --    46 O    0.854
   128   6 C    3.987 --   132 C    1.426   119 C    1.388   135 H    0.966
   129   6 C    3.986 --   133 C    1.419   118 C    1.384   137 H    0.961
   130   7 N    2.936 --   122 C    1.632   131 H    0.935   120 N    0.133
                           121 N    0.109
   131   1 H    0.980 --   130 N    0.935
   132   6 C    3.982 --   133 C    1.440   128 C    1.426   134 H    0.971
   133   6 C    3.981 --   132 C    1.440   129 C    1.419   136 H    0.971
   134   1 H    0.997 --   132 C    0.971
   135   1 H    0.998 --   128 C    0.966
   136   1 H    0.998 --   133 C    0.971
   137   1 H    0.998 --   129 C    0.961
 ---------------------------------------------------------------------------

Topologies differ in total number of bonds
Writing topology from bond orders to xtbtopo.mol

molecular dipole:
                 x           y           z       tot (Debye)
 q only:       -0.143      -0.796       0.512
   full:       -0.411      -1.278       0.523       3.661
molecular quadrupole (traceless):
                xx          xy          yy          xz          yz          zz
 q only:      -34.065     -67.358      86.098      58.639      19.084     -52.033
  q+dip:      -84.373     -96.550     127.233      81.196      43.674     -42.861
   full:      -85.530     -96.416     129.988      80.743      42.225     -44.457

           -------------------------------------------------
          |                Geometry Summary                 |
           -------------------------------------------------

      molecular mass/u    :     1069.9653583
   center of mass at/Å    :       32.6230434     -19.2321071     -17.7146061
  moments of inertia/u·Å² :        0.1383344E+05   0.1860999E+05   0.2388924E+05
rotational constants/cm⁻¹ :        0.1218615E-02   0.9058379E-03   0.7056578E-03

 * 136 selected distances

     #   Z          #   Z                                           value/Å
     1   6 C        2   6 C                                       1.5407015 (max)
     2   6 C        3   6 C                                       1.5324604
     4   6 C        5   6 C                                       1.5387782
     5   6 C        6   6 C                                       1.5358975
     2   6 C        7   8 O                                       1.4077139
     3   6 C        8   8 O                                       1.4054989
     4   6 C        9   8 O                                       1.4165548
     1   6 C       10   8 O                                       1.3990698
     5   6 C       10   8 O                                       1.4221664
     1   6 C       11   1 H                                       1.0952350
     2   6 C       12   1 H                                       1.1000618
     3   6 C       13   1 H                                       1.1006810
     4   6 C       14   1 H                                       1.0978760
     5   6 C       15   1 H                                       1.0987767
     7   8 O       16   1 H                                       0.9675904
     8   8 O       17   1 H                                       0.9724448
    18   6 C       19   6 C                                       1.5349920
    19   6 C       20   6 C                                       1.5257273
    20   6 C       21   6 C                                       1.5389347
    19   6 C       24   8 O                                       1.4063331
    20   6 C       25   8 O                                       1.4045978
     1   6 C       26   8 O                                       1.4002608
    21   6 C       26   8 O                                       1.4194148
    18   6 C       27   8 O                                       1.4013164
    22   6 C       27   8 O                                       1.4292315
    23   6 C       28   8 O                                       1.3949005
    18   6 C       29   1 H                                       1.0987537
    19   6 C       30   1 H                                       1.0991862
    20   6 C       31   1 H                                       1.1024767
    21   6 C       32   1 H                                       1.0972821
    22   6 C       33   1 H                                       1.1002055
    23   6 C       34   1 H                                       1.0932237
    23   6 C       35   1 H                                       1.0979135
    24   8 O       36   1 H                                       0.9668437
    25   8 O       37   1 H                                       0.9730442
    28   8 O       38   1 H                                       0.9682330
    39   6 C       40   6 C                                       1.5362093
    40   6 C       41   6 C                                       1.5253838
    41   6 C       42   6 C                                       1.5364493
    40   6 C       45   8 O                                       1.4041344
    41   6 C       46   8 O                                       1.4055308
    18   6 C       47   8 O                                       1.3912858
    42   6 C       47   8 O                                       1.4189766
    39   6 C       48   8 O                                       1.4021508
    43   6 C       48   8 O                                       1.4220163
    44   6 C       49   8 O                                       1.3947986
    39   6 C       50   1 H                                       1.0973725
    40   6 C       51   1 H                                       1.1008614
    41   6 C       52   1 H                                       1.1011533
    42   6 C       53   1 H                                       1.0994055
    43   6 C       54   1 H                                       1.0997514
    44   6 C       55   1 H                                       1.0991953
    44   6 C       56   1 H                                       1.0929466
    45   8 O       57   1 H                                       0.9670193
    49   8 O       58   1 H                                       0.9705969
    59   6 C       60   6 C                                       1.5394212
    60   6 C       61   6 C                                       1.5309629
    61   6 C       62   6 C                                       1.5398369
    62   6 C       63   6 C                                       1.5390783
    63   6 C       64   6 C                                       1.5310738
    60   6 C       65   8 O                                       1.4070598
    61   6 C       66   8 O                                       1.4067080
    39   6 C       67   8 O                                       1.3988351
    62   6 C       67   8 O                                       1.4176781
    59   6 C       68   8 O                                       1.4018636
    63   6 C       68   8 O                                       1.4292286
    59   6 C       69   1 H                                       1.0962602
    60   6 C       70   1 H                                       1.1000792
    61   6 C       71   1 H                                       1.1000161
    62   6 C       72   1 H                                       1.0990565
    63   6 C       73   1 H                                       1.0963434
    65   8 O       74   1 H                                       0.9673256
    66   8 O       75   1 H                                       0.9722566
    76   6 C       77   6 C                                       1.5354443
    77   6 C       78   6 C                                       1.5251045
    78   6 C       79   6 C                                       1.5383844
    77   6 C       82   8 O                                       1.4070728
    78   6 C       83   8 O                                       1.4055091
    59   6 C       84   8 O                                       1.3948172
    79   6 C       84   8 O                                       1.4175571
    76   6 C       85   8 O                                       1.3988787
    80   6 C       85   8 O                                       1.4343430
    81   6 C       86   8 O                                       1.3952735
    76   6 C       87   1 H                                       1.0988670
    77   6 C       88   1 H                                       1.0993370
    78   6 C       89   1 H                                       1.1020202
    79   6 C       90   1 H                                       1.0982488
    80   6 C       91   1 H                                       1.0996743
    81   6 C       92   1 H                                       1.0940300
    81   6 C       93   1 H                                       1.0994204
    82   8 O       94   1 H                                       0.9667939 (min)
    83   8 O       95   1 H                                       0.9727009
    86   8 O       96   1 H                                       0.9679800
     9   8 O       97   6 C                                       1.4044837
    97   6 C       98   6 C                                       1.5366486
    98   6 C       99   6 C                                       1.5249969
    99   6 C      100   6 C                                       1.5365496
    98   6 C      103   8 O                                       1.4050660
    99   6 C      104   8 O                                       1.4053482
    76   6 C      105   8 O                                       1.3922680
   100   6 C      105   8 O                                       1.4160344
    97   6 C      106   8 O                                       1.3990905
   101   6 C      106   8 O                                       1.4220409
   102   6 C      107   8 O                                       1.3950496
    97   6 C      108   1 H                                       1.0965455
    98   6 C      109   1 H                                       1.1005410
    99   6 C      110   1 H                                       1.1013653
   100   6 C      111   1 H                                       1.0997796
   101   6 C      112   1 H                                       1.0991610
   102   6 C      113   1 H                                       1.0987141
   102   6 C      114   1 H                                       1.0930775
   103   8 O      115   1 H                                       0.9669651
   104   8 O      116   1 H                                       0.9717213
   107   8 O      117   1 H                                       0.9725030
   118   6 C      119   6 C                                       1.4045922
     6   6 C      120   7 N                                       1.4354823
   118   6 C      120   7 N                                       1.3786052
    64   6 C      121   7 N                                       1.4485579
   119   6 C      121   7 N                                       1.3854870
   120   7 N      122   6 C                                       1.3977447
   121   7 N      122   6 C                                       1.3794620
    64   6 C      123   1 H                                       1.0984472
    64   6 C      124   1 H                                       1.0940759
     6   6 C      125   1 H                                       1.0918048
     6   6 C      126   1 H                                       1.0915788
    46   8 O      127   1 H                                       0.9729430
   119   6 C      128   6 C                                       1.3813645
   118   6 C      129   6 C                                       1.3806587
   122   6 C      130   7 N                                       1.2721718
   128   6 C      132   6 C                                       1.3883145
   129   6 C      133   6 C                                       1.3903243
   132   6 C      133   6 C                                       1.3859309
   132   6 C      134   1 H                                       1.0779206
   128   6 C      135   1 H                                       1.0770185
   133   6 C      136   1 H                                       1.0792743
   129   6 C      137   1 H                                       1.0791096

 * 5 distinct bonds (by element types)

   Z      Z             #   av. dist./Å        max./Å        min./Å
   1 H    6 C          46     1.0963940     1.1024767     1.0770185
   6 C    6 C          27     1.5020082     1.5407015     1.3806587
   6 C    7 N           7     1.3853587     1.4485579     1.2721718
   1 H    8 O          16     0.9698101     0.9730442     0.9667939
   6 C    8 O          40     1.4075039     1.4343430     1.3912858


optimized geometry written to: xtbopt.xyz


           -------------------------------------------------
          | TOTAL ENERGY             -247.013516624548 Eh   |
          | GRADIENT NORM               0.000419312035 Eh/α |
          | HOMO-LUMO GAP               3.450661477270 eV   |
           -------------------------------------------------

------------------------------------------------------------------------
 * finished run on 2022/03/19 at 13:19:47.794     
------------------------------------------------------------------------
 total:
 * wall-time:     0 d,  0 h,  0 min, 24.139 sec
 *  cpu-time:     0 d,  0 h, 18 min, 45.398 sec
 * ratio c/w:    46.621 speedup
 SCF:
 * wall-time:     0 d,  0 h,  0 min,  0.621 sec
 *  cpu-time:     0 d,  0 h,  0 min, 32.979 sec
 * ratio c/w:    53.134 speedup
 ANC optimizer:
 * wall-time:     0 d,  0 h,  0 min, 23.393 sec
 *  cpu-time:     0 d,  0 h, 18 min,  5.484 sec
 * ratio c/w:    46.402 speedup

