      -----------------------------------------------------------      
     |                   =====================                   |     
     |                           x T B                           |     
     |                   =====================                   |     
     |                         S. Grimme                         |     
     |          Mulliken Center for Theoretical Chemistry        |     
     |                    University of Bonn                     |     
      -----------------------------------------------------------      

   * xtb version 6.4.1 (bd6e46d) compiled by 'conda@4901f00b25ba' on 2021-06-10

   xtb is free software: you can redistribute it and/or modify it under
   the terms of the GNU Lesser General Public License as published by
   the Free Software Foundation, either version 3 of the License, or
   (at your option) any later version.
   
   xtb is distributed in the hope that it will be useful,
   but WITHOUT ANY WARRANTY; without even the implied warranty of
   MERCHANTABILITY or FITNESS FOR A PARTICULAR PURPOSE.  See the
   GNU Lesser General Public License for more details.
   
   Cite this work as:
   * C. Bannwarth, E. Caldeweyher, S. Ehlert, A. Hansen, P. Pracht,
     J. Seibert, S. Spicher, S. Grimme, WIREs Comput. Mol. Sci., 2020, 11,
     e01493. DOI: 10.1002/wcms.1493
   
   for GFN2-xTB:
   * C. Bannwarth, S. Ehlert and S. Grimme., J. Chem. Theory Comput., 2019,
     15, 1652-1671. DOI: 10.1021/acs.jctc.8b01176
   for GFN1-xTB:
   * S. Grimme, C. Bannwarth, P. Shushkov, J. Chem. Theory Comput., 2017,
     13, 1989-2009. DOI: 10.1021/acs.jctc.7b00118
   for GFN0-xTB:
   * P. Pracht, E. Caldeweyher, S. Ehlert, S. Grimme, ChemRxiv, 2019, preprint.
     DOI: 10.26434/chemrxiv.8326202.v1
   for GFN-FF:
   * S. Spicher and S. Grimme, Angew. Chem. Int. Ed., 2020, 59, 15665-15673.
     DOI: 10.1002/anie.202004239
   
   for DFT-D4:
   * E. Caldeweyher, C. Bannwarth and S. Grimme, J. Chem. Phys., 2017,
     147, 034112. DOI: 10.1063/1.4993215
   * E. Caldeweyher, S. Ehlert, A. Hansen, H. Neugebauer, S. Spicher,
     C. Bannwarth and S. Grimme, J. Chem. Phys., 2019, 150, 154122.
     DOI: 10.1063/1.5090222
   * E. Caldeweyher, J.-M. Mewes, S. Ehlert and S. Grimme, Phys. Chem. Chem. Phys.
     2020, 22, 8499-8512. DOI: 10.1039/D0CP00502A
   
   for sTDA-xTB:
   * S. Grimme and C. Bannwarth, J. Chem. Phys., 2016, 145, 054103.
     DOI: 10.1063/1.4959605
   
   in the mass-spec context:
   * V. Asgeirsson, C. Bauer and S. Grimme, Chem. Sci., 2017, 8, 4879.
     DOI: 10.1039/c7sc00601b
   * J. Koopman and S. Grimme, ACS Omega 2019, 4, 12, 15120-15133.
     DOI: 10.1021/acsomega.9b02011
   
   for metadynamics refer to:
   * S. Grimme, J. Chem. Theory Comput., 2019, 155, 2847-2862
     DOI: 10.1021/acs.jctc.9b00143
   
   for SPH calculations refer to:
   * S. Spicher and S. Grimme, J. Chem. Theory Comput., 2021, 17, 1701-1714
     DOI: 10.1021/acs.jctc.0c01306
   
   with help from (in alphabetical order)
   P. Atkinson, C. Bannwarth, F. Bohle, G. Brandenburg, E. Caldeweyher
   M. Checinski, S. Dohm, S. Ehlert, S. Ehrlich, I. Gerasimov, J. Koopman
   C. Lavigne, S. Lehtola, F. März, M. Müller, F. Musil, H. Neugebauer
   J. Pisarek, C. Plett, P. Pracht, J. Seibert, P. Shushkov, S. Spicher
   M. Stahn, M. Steiner, T. Strunk, J. Stückrath, T. Rose, and J. Unsleber
   
 * started run on 2022/03/19 at 15:14:14.081     

           -------------------------------------------------
          |                Calculation Setup                |
           -------------------------------------------------

          program call               : /jet/home/maihfly/.conda/envs/Cyclodextrins-Env/bin/xtb p-fluorophenol_opt_xtb.xyz --chrg 0 --uhf 0 --opt
          hostname                   : l011
          coordinate file            : p-fluorophenol_opt_xtb.xyz
          omp threads                :                     8
          number of atoms            :                    13
          number of electrons        :                    42
          charge                     :                     0
          spin                       :                   0.0
          first test random number   :      0.83365574058790

   ID    Z sym.   atoms
    1    6 C      1-6
    2    8 O      7
    3    9 F      8
    4    1 H      9-13

           -------------------------------------------------
          |                 G F N 2 - x T B                 |
           -------------------------------------------------

        Reference                      10.1021/acs.jctc.8b01176
      * Hamiltonian:
        H0-scaling (s, p, d)           1.850000    2.230000    2.230000
        zeta-weighting                 0.500000
      * Dispersion:
        s8                             2.700000
        a1                             0.520000
        a2                             5.000000
        s9                             5.000000
      * Repulsion:
        kExp                           1.500000    1.000000
        rExp                           1.000000
      * Coulomb:
        alpha                          2.000000
        third order                    shell-resolved
        anisotropic                    true
        a3                             3.000000
        a5                             4.000000
        cn-shift                       1.200000
        cn-exp                         4.000000
        max-rad                        5.000000


          ...................................................
          :                      SETUP                      :
          :.................................................:
          :  # basis functions                  37          :
          :  # atomic orbitals                  37          :
          :  # shells                           21          :
          :  # electrons                        42          :
          :  max. iterations                   250          :
          :  Hamiltonian                  GFN2-xTB          :
          :  restarted?                      false          :
          :  GBSA solvation                  false          :
          :  PC potential                    false          :
          :  electronic temp.          300.0000000     K    :
          :  accuracy                    1.0000000          :
          :  -> integral cutoff          0.2500000E+02      :
          :  -> integral neglect         0.1000000E-07      :
          :  -> SCF convergence          0.1000000E-05 Eh   :
          :  -> wf. convergence          0.1000000E-03 e    :
          :  Broyden damping             0.4000000          :
          ...................................................

 iter      E             dE          RMSdq      gap      omega  full diag
   1    -24.4548495 -0.244548E+02  0.473E+00    4.29       0.0  T
   2    -24.4760610 -0.212115E-01  0.275E+00    4.58       1.0  T
   3    -24.4724554  0.360562E-02  0.104E+00    4.31       1.0  T
   4    -24.4792414 -0.678605E-02  0.247E-01    4.56       1.0  T
   5    -24.4794933 -0.251869E-03  0.849E-02    4.55       1.0  T
   6    -24.4795364 -0.431206E-04  0.405E-02    4.54       1.0  T
   7    -24.4795413 -0.487292E-05  0.130E-02    4.54       2.1  T
   8    -24.4795414 -0.135663E-06  0.361E-03    4.54       7.7  T
   9    -24.4795414 -0.278476E-07  0.208E-03    4.54      13.4  T
  10    -24.4795414 -0.185106E-07  0.367E-04    4.54      75.6  T
  11    -24.4795414 -0.450878E-09  0.164E-04    4.54     169.1  T

   *** convergence criteria satisfied after 11 iterations ***

         #    Occupation            Energy/Eh            Energy/eV
      -------------------------------------------------------------
         1        2.0000           -0.8132448             -22.1295
       ...           ...                  ...                  ...
        15        2.0000           -0.4904573             -13.3460
        16        2.0000           -0.4829567             -13.1419
        17        2.0000           -0.4743741             -12.9084
        18        2.0000           -0.4529359             -12.3250
        19        2.0000           -0.4266701             -11.6103
        20        2.0000           -0.4227366             -11.5032
        21        2.0000           -0.4125856             -11.2270 (HOMO)
        22                         -0.2457362              -6.6868 (LUMO)
        23                         -0.2381179              -6.4795
        24                         -0.1118061              -3.0424
        25                         -0.0105768              -0.2878
        26                          0.0233496               0.6354
       ...                                ...                  ...
        37                          0.6524691              17.7546
      -------------------------------------------------------------
                  HL-Gap            0.1668495 Eh            4.5402 eV
             Fermi-level           -0.3291609 Eh           -8.9569 eV

 SCC (total)                   0 d,  0 h,  0 min,  0.009 sec
 SCC setup                      ...        0 min,  0.000 sec (  1.651%)
 Dispersion                     ...        0 min,  0.000 sec (  1.030%)
 classical contributions        ...        0 min,  0.000 sec (  0.363%)
 integral evaluation            ...        0 min,  0.000 sec (  4.558%)
 iterations                     ...        0 min,  0.007 sec ( 78.256%)
 molecular gradient             ...        0 min,  0.001 sec (  8.811%)
 printout                       ...        0 min,  0.000 sec (  5.149%)

         :::::::::::::::::::::::::::::::::::::::::::::::::::::
         ::                     SUMMARY                     ::
         :::::::::::::::::::::::::::::::::::::::::::::::::::::
         :: total energy             -24.167309225180 Eh    ::
         :: gradient norm              0.071001673953 Eh/a0 ::
         :: HOMO-LUMO gap              4.540204709147 eV    ::
         ::.................................................::
         :: SCC energy               -24.479541447900 Eh    ::
         :: -> isotropic ES            0.036100165350 Eh    ::
         :: -> anisotropic ES          0.002010199293 Eh    ::
         :: -> anisotropic XC          0.003137730591 Eh    ::
         :: -> dispersion             -0.009238318698 Eh    ::
         :: repulsion energy           0.312221722702 Eh    ::
         :: add. restraining           0.000000000000 Eh    ::
         :: total charge              -0.000000000000 e     ::
         :::::::::::::::::::::::::::::::::::::::::::::::::::::

      ----------------------------------------------------------- 
     |                   =====================                   |
     |                        A N C O P T                        |
     |                   =====================                   |
     |               Approximate Normal Coordinate               |
     |                Rational Function Optimizer                |
      ----------------------------------------------------------- 

          ...................................................
          :                      SETUP                      :
          :.................................................:
          :   optimization level            normal          :
          :   max. optcycles                   200          :
          :   ANC micro-cycles                  20          :
          :   degrees of freedom                33          :
          :.................................................:
          :   RF solver                   davidson          :
          :   write xtbopt.log                true          :
          :   linear?                        false          :
          :   energy convergence         0.5000000E-05 Eh   :
          :   grad. convergence          0.1000000E-02 Eh/α :
          :   maximium RF displ.         1.0000000          :
          :   Hlow (freq-cutoff)         0.1000000E-01      :
          :   Hmax (freq-cutoff)         5.0000000          :
          :   S6 in model hess.         20.0000000          :
          ...................................................

generating ANC from model Hessian ...
Using Lindh-Hessian (1995)
 Shifting diagonal of input Hessian by    1.3288084233987370E-003
 Lowest  eigenvalues of input Hessian
    0.000000    0.000000    0.000000    0.000000    0.000000    0.000000
    0.010000    0.016052    0.018979    0.022942    0.027511    0.053432
    0.078145    0.092543    0.096436    0.100797    0.103929    0.111846
 Highest eigenvalues
    1.467703    1.611712    1.840671    1.930008    2.039640    2.171543


........................................................................
.............................. CYCLE    1 ..............................
........................................................................
   1    -24.4795414 -0.244795E+02  0.699E-05    4.54       0.0  T
   2    -24.4795414 -0.180833E-10  0.402E-05    4.54     690.5  T
   3    -24.4795414 -0.637712E-11  0.242E-05    4.54    1144.6  T
     SCC iter.                  ...        0 min,  0.002 sec
     gradient                   ...        0 min,  0.001 sec
 * total energy  :   -24.1673092 Eh     change       -0.9947243E-10 Eh
   gradient norm :     0.0710023 Eh/α   predicted     0.0000000E+00 (-100.00%)
   displ. norm   :     0.2203491 α      lambda       -0.9160681E-02
   maximum displ.:     0.1024747 α      in ANC's #8, #15, #9, ...

........................................................................
.............................. CYCLE    2 ..............................
........................................................................
   1    -24.4864965 -0.244865E+02  0.342E-01    4.45       0.0  T
   2    -24.4865223 -0.257688E-04  0.206E-01    4.46       1.0  T
   3    -24.4864959  0.264549E-04  0.470E-02    4.47       1.0  T
   4    -24.4865273 -0.314858E-04  0.769E-03    4.47       3.6  T
   5    -24.4865280 -0.623301E-06  0.359E-03    4.47       7.7  T
   6    -24.4865280 -0.184177E-07  0.185E-03    4.47      15.0  T
   7    -24.4865280 -0.133187E-07  0.389E-04    4.47      71.3  T
   8    -24.4865280 -0.532623E-10  0.188E-04    4.47     147.2  T
     SCC iter.                  ...        0 min,  0.004 sec
     gradient                   ...        0 min,  0.001 sec
 * total energy  :   -24.1734732 Eh     change       -0.6164009E-02 Eh
   gradient norm :     0.0278507 Eh/α   predicted    -0.4802738E-02 ( -22.08%)
   displ. norm   :     0.1285841 α      lambda       -0.1855877E-02
   maximum displ.:     0.0714930 α      in ANC's #6, #8, #15, ...

........................................................................
.............................. CYCLE    3 ..............................
........................................................................
   1    -24.4914682 -0.244915E+02  0.171E-01    4.42       0.0  T
   2    -24.4914754 -0.726330E-05  0.102E-01    4.42       1.0  T
   3    -24.4914633  0.121839E-04  0.336E-02    4.42       1.0  T
   4    -24.4914782 -0.149713E-04  0.379E-03    4.42       7.3  T
   5    -24.4914783 -0.677141E-07  0.204E-03    4.42      13.6  T
   6    -24.4914783 -0.966500E-08  0.108E-03    4.42      25.7  T
   7    -24.4914783 -0.267304E-08  0.297E-04    4.42      93.5  T
   8    -24.4914783 -0.631779E-10  0.133E-04    4.42     207.8  T
     SCC iter.                  ...        0 min,  0.004 sec
     gradient                   ...        0 min,  0.001 sec
 * total energy  :   -24.1743242 Eh     change       -0.8509841E-03 Eh
   gradient norm :     0.0081798 Eh/α   predicted    -0.9432791E-03 (  10.85%)
   displ. norm   :     0.0392729 α      lambda       -0.9312414E-04
   maximum displ.:     0.0271881 α      in ANC's #2, #3, #4, ...

........................................................................
.............................. CYCLE    4 ..............................
........................................................................
   1    -24.4909306 -0.244909E+02  0.268E-02    4.42       0.0  T
   2    -24.4909310 -0.427075E-06  0.161E-02    4.42       1.7  T
   3    -24.4909307  0.289516E-06  0.855E-03    4.42       3.2  T
   4    -24.4909313 -0.526773E-06  0.126E-03    4.42      22.1  T
   5    -24.4909313 -0.315884E-08  0.691E-04    4.42      40.1  T
   6    -24.4909313 -0.111362E-08  0.253E-04    4.42     109.7  T
     SCC iter.                  ...        0 min,  0.003 sec
     gradient                   ...        0 min,  0.001 sec
 * total energy  :   -24.1743938 Eh     change       -0.6961081E-04 Eh
   gradient norm :     0.0031521 Eh/α   predicted    -0.4663292E-04 ( -33.01%)
   displ. norm   :     0.1165281 α      lambda       -0.1279644E-03
   maximum displ.:     0.0849570 α      in ANC's #2, #3, #10, ...

........................................................................
.............................. CYCLE    5 ..............................
........................................................................
   1    -24.4900815 -0.244901E+02  0.658E-02    4.41       0.0  T
   2    -24.4900841 -0.266595E-05  0.400E-02    4.41       1.0  T
   3    -24.4900822  0.197621E-05  0.212E-02    4.41       1.3  T
   4    -24.4900857 -0.354716E-05  0.281E-03    4.41       9.9  T
   5    -24.4900857 -0.177749E-07  0.158E-03    4.41      17.6  T
   6    -24.4900857 -0.793574E-08  0.402E-04    4.41      69.0  T
   7    -24.4900857 -0.225942E-09  0.111E-04    4.41     249.8  T
     SCC iter.                  ...        0 min,  0.003 sec
     gradient                   ...        0 min,  0.001 sec
 * total energy  :   -24.1744819 Eh     change       -0.8807247E-04 Eh
   gradient norm :     0.0092697 Eh/α   predicted    -0.6485171E-04 ( -26.37%)
   displ. norm   :     0.1353749 α      lambda       -0.1191531E-03
   maximum displ.:     0.0968229 α      in ANC's #2, #3, #10, ...

........................................................................
.............................. CYCLE    6 ..............................
........................................................................
   1    -24.4890515 -0.244891E+02  0.764E-02    4.38       0.0  T
   2    -24.4890551 -0.363934E-05  0.464E-02    4.38       1.0  T
   3    -24.4890523  0.286755E-05  0.237E-02    4.38       1.2  T
   4    -24.4890571 -0.485720E-05  0.345E-03    4.38       8.0  T
   5    -24.4890572 -0.211140E-07  0.182E-03    4.38      15.3  T
   6    -24.4890572 -0.194826E-07  0.667E-04    4.38      41.6  T
   7    -24.4890572 -0.377153E-09  0.975E-05    4.38     284.4  T
     SCC iter.                  ...        0 min,  0.003 sec
     gradient                   ...        0 min,  0.001 sec
 * total energy  :   -24.1745445 Eh     change       -0.6257605E-04 Eh
   gradient norm :     0.0196233 Eh/α   predicted    -0.6066870E-04 (  -3.05%)
   displ. norm   :     0.0716580 α      lambda       -0.2107398E-03
   maximum displ.:     0.0485042 α      in ANC's #3, #2, #1, ...

........................................................................
.............................. CYCLE    7 ..............................
........................................................................
   1    -24.4893988 -0.244894E+02  0.437E-02    4.36       0.0  T
   2    -24.4894001 -0.133794E-05  0.270E-02    4.36       1.0  T
   3    -24.4893993  0.812286E-06  0.145E-02    4.36       1.9  T
   4    -24.4894009 -0.155631E-05  0.199E-03    4.36      14.0  T
   5    -24.4894009 -0.899621E-08  0.101E-03    4.36      27.4  T
   6    -24.4894009 -0.499996E-08  0.411E-04    4.36      67.5  T
   7    -24.4894009 -0.129980E-09  0.827E-05    4.36     335.6  T
     SCC iter.                  ...        0 min,  0.003 sec
     gradient                   ...        0 min,  0.001 sec
 * total energy  :   -24.1747461 Eh     change       -0.2016429E-03 Eh
   gradient norm :     0.0197205 Eh/α   predicted    -0.1059117E-03 ( -47.48%)
   displ. norm   :     0.5117994 α      lambda       -0.2377839E-02
   maximum displ.:     0.3360386 α      in ANC's #3, #2, #12, ...

........................................................................
.............................. CYCLE    8 ..............................
........................................................................
   1    -24.4868285 -0.244868E+02  0.355E-01    4.19       0.0  T
   2    -24.4870158 -0.187331E-03  0.210E-01    4.22       1.0  T
   3    -24.4870127  0.309809E-05  0.126E-01    4.22       1.0  T
   4    -24.4870842 -0.714488E-04  0.276E-02    4.22       1.0  T
   5    -24.4870861 -0.196178E-05  0.774E-03    4.22       3.6  T
   6    -24.4870864 -0.256659E-06  0.393E-03    4.22       7.1  T
   7    -24.4870864 -0.277523E-07  0.129E-03    4.22      21.4  T
   8    -24.4870864 -0.901583E-09  0.335E-04    4.22      82.9  T
   9    -24.4870864 -0.128460E-08  0.121E-04    4.22     229.0  T
     SCC iter.                  ...        0 min,  0.004 sec
     gradient                   ...        0 min,  0.001 sec
 * total energy  :   -24.1758820 Eh     change       -0.1135846E-02 Eh
   gradient norm :     0.0477319 Eh/α   predicted    -0.1500344E-02 (  32.09%)
   displ. norm   :     0.2805368 α      lambda       -0.6931926E-02
   maximum displ.:     0.1449310 α      in ANC's #26, #25, #12, ...

........................................................................
.............................. CYCLE    9 ..............................
........................................................................
   1    -24.4998032 -0.244998E+02  0.290E-01    4.15       0.0  T
   2    -24.4998843 -0.810626E-04  0.182E-01    4.17       1.0  T
   3    -24.4998729  0.113380E-04  0.104E-01    4.17       1.0  T
   4    -24.4999258 -0.528487E-04  0.202E-02    4.17       1.4  T
   5    -24.4999266 -0.813167E-06  0.924E-03    4.17       3.0  T
   6    -24.4999266 -0.283941E-07  0.366E-03    4.17       7.6  T
   7    -24.4999267 -0.770580E-07  0.133E-03    4.17      20.8  T
   8    -24.4999267 -0.487626E-08  0.514E-04    4.17      53.9  T
   9    -24.4999267 -0.122342E-08  0.263E-04    4.17     105.6  T
     SCC iter.                  ...        0 min,  0.004 sec
     gradient                   ...        0 min,  0.001 sec
 * total energy  :   -24.1761462 Eh     change       -0.2642652E-03 Eh
   gradient norm :     0.0594340 Eh/α   predicted    -0.3738732E-02 (1314.76%)
   displ. norm   :     0.4671616 α      lambda       -0.8130393E-02
   maximum displ.:     0.2796973 α      in ANC's #2, #3, #1, ...

........................................................................
.............................. CYCLE   10 ..............................
........................................................................
   1    -24.4836847 -0.244837E+02  0.426E-01    4.06       0.0  T
   2    -24.4839984 -0.313713E-03  0.227E-01    4.11       1.0  T
   3    -24.4839879  0.105149E-04  0.133E-01    4.10       1.0  T
   4    -24.4840781 -0.901775E-04  0.409E-02    4.11       1.0  T
   5    -24.4840822 -0.409721E-05  0.116E-02    4.11       2.4  T
   6    -24.4840823 -0.171463E-06  0.618E-03    4.11       4.5  T
   7    -24.4840824 -0.882134E-07  0.227E-03    4.11      12.2  T
   8    -24.4840825 -0.131242E-07  0.508E-04    4.11      54.6  T
   9    -24.4840825 -0.323830E-09  0.296E-04    4.11      93.6  T
     SCC iter.                  ...        0 min,  0.004 sec
     gradient                   ...        0 min,  0.001 sec
 * total energy  :   -24.1762149 Eh     change       -0.6870641E-04 Eh
   gradient norm :     0.0790033 Eh/α   predicted    -0.4952392E-02 (7108.05%)
   displ. norm   :     0.4049357 α      lambda       -0.1163250E-01
   maximum displ.:     0.2015411 α      in ANC's #12, #26, #3, ...

........................................................................
.............................. CYCLE   11 ..............................
........................................................................
   1    -24.4923653 -0.244924E+02  0.461E-01    4.19       0.0  T
   2    -24.4926664 -0.301105E-03  0.270E-01    4.18       1.0  T
   3    -24.4926365  0.298915E-04  0.137E-01    4.16       1.0  T
   4    -24.4927270 -0.904840E-04  0.421E-02    4.17       1.0  T
   5    -24.4927334 -0.645764E-05  0.111E-02    4.17       2.5  T
   6    -24.4927338 -0.408184E-06  0.601E-03    4.17       4.6  T
   7    -24.4927339 -0.693950E-07  0.216E-03    4.17      12.8  T
   8    -24.4927339 -0.417141E-08  0.452E-04    4.17      61.3  T
   9    -24.4927339 -0.250287E-08  0.168E-04    4.17     165.2  T
     SCC iter.                  ...        0 min,  0.004 sec
     gradient                   ...        0 min,  0.001 sec
 * total energy  :   -24.1785827 Eh     change       -0.2367740E-02 Eh
   gradient norm :     0.0271780 Eh/α   predicted    -0.6769971E-02 ( 185.93%)
   displ. norm   :     0.1743566 α      lambda       -0.3173178E-02
   maximum displ.:     0.0814031 α      in ANC's #26, #12, #25, ...

........................................................................
.............................. CYCLE   12 ..............................
........................................................................
   1    -24.4985339 -0.244985E+02  0.193E-01    4.14       0.0  T
   2    -24.4985762 -0.422542E-04  0.119E-01    4.15       1.0  T
   3    -24.4985690  0.719248E-05  0.617E-02    4.16       1.0  T
   4    -24.4985867 -0.177157E-04  0.134E-02    4.16       2.1  T
   5    -24.4985875 -0.769615E-06  0.410E-03    4.15       6.8  T
   6    -24.4985875 -0.222441E-07  0.229E-03    4.15      12.1  T
   7    -24.4985875 -0.147999E-07  0.754E-04    4.15      36.8  T
   8    -24.4985875 -0.926356E-09  0.180E-04    4.15     153.8  T
     SCC iter.                  ...        0 min,  0.004 sec
     gradient                   ...        0 min,  0.001 sec
 * total energy  :   -24.1802463 Eh     change       -0.1663657E-02 Eh
   gradient norm :     0.0109681 Eh/α   predicted    -0.1634821E-02 (  -1.73%)
   displ. norm   :     0.2136661 α      lambda       -0.1389466E-02
   maximum displ.:     0.1045675 α      in ANC's #2, #1, #26, ...

........................................................................
.............................. CYCLE   13 ..............................
........................................................................
   1    -24.4961538 -0.244962E+02  0.162E-01    4.11       0.0  T
   2    -24.4961996 -0.458318E-04  0.909E-02    4.13       1.0  T
   3    -24.4962003 -0.643205E-06  0.548E-02    4.13       1.0  T
   4    -24.4962124 -0.121329E-04  0.142E-02    4.13       2.0  T
   5    -24.4962129 -0.503830E-06  0.340E-03    4.13       8.1  T
   6    -24.4962129 -0.224227E-07  0.182E-03    4.13      15.2  T
   7    -24.4962129 -0.718578E-08  0.697E-04    4.13      39.8  T
   8    -24.4962129 -0.698382E-09  0.106E-04    4.13     262.6  T
     SCC iter.                  ...        0 min,  0.004 sec
     gradient                   ...        0 min,  0.001 sec
 * total energy  :   -24.1812381 Eh     change       -0.9917423E-03 Eh
   gradient norm :     0.0217781 Eh/α   predicted    -0.7264493E-03 ( -26.75%)
   displ. norm   :     0.1972466 α      lambda       -0.9071930E-03
   maximum displ.:     0.0989558 α      in ANC's #1, #2, #26, ...

........................................................................
.............................. CYCLE   14 ..............................
........................................................................
   1    -24.4946330 -0.244946E+02  0.126E-01    4.10       0.0  T
   2    -24.4946516 -0.185562E-04  0.728E-02    4.12       1.0  T
   3    -24.4946493  0.232824E-05  0.415E-02    4.11       1.0  T
   4    -24.4946576 -0.838194E-05  0.785E-03    4.11       3.5  T
   5    -24.4946578 -0.190247E-06  0.294E-03    4.11       9.4  T
   6    -24.4946579 -0.308515E-07  0.155E-03    4.11      17.9  T
   7    -24.4946579 -0.390257E-08  0.441E-04    4.11      62.9  T
   8    -24.4946579 -0.253710E-09  0.964E-05    4.11     287.6  T
     SCC iter.                  ...        0 min,  0.004 sec
     gradient                   ...        0 min,  0.001 sec
 * total energy  :   -24.1817019 Eh     change       -0.4638105E-03 Eh
   gradient norm :     0.0337167 Eh/α   predicted    -0.4712444E-03 (   1.60%)
   displ. norm   :     0.0763031 α      lambda       -0.1047191E-02
   maximum displ.:     0.0387157 α      in ANC's #2, #12, #1, ...

........................................................................
.............................. CYCLE   15 ..............................
........................................................................
   1    -24.4975703 -0.244976E+02  0.843E-02    4.11       0.0  T
   2    -24.4975752 -0.492119E-05  0.495E-02    4.11       1.0  T
   3    -24.4975741  0.114418E-05  0.180E-02    4.11       1.5  T
   4    -24.4975762 -0.213630E-05  0.461E-03    4.11       6.0  T
   5    -24.4975763 -0.799825E-07  0.184E-03    4.11      15.1  T
   6    -24.4975763 -0.117096E-07  0.998E-04    4.11      27.8  T
   7    -24.4975763 -0.174104E-08  0.258E-04    4.11     107.6  T
     SCC iter.                  ...        0 min,  0.003 sec
     gradient                   ...        0 min,  0.001 sec
 * total energy  :   -24.1824196 Eh     change       -0.7177026E-03 Eh
   gradient norm :     0.0157273 Eh/α   predicted    -0.5266442E-03 ( -26.62%)
   displ. norm   :     0.1385432 α      lambda       -0.6693575E-03
   maximum displ.:     0.0716901 α      in ANC's #26, #1, #25, ...

........................................................................
.............................. CYCLE   16 ..............................
........................................................................
   1    -24.4992396 -0.244992E+02  0.762E-02    4.11       0.0  T
   2    -24.4992409 -0.131553E-05  0.461E-02    4.11       1.0  T
   3    -24.4992391  0.181601E-05  0.163E-02    4.11       1.7  T
   4    -24.4992417 -0.254470E-05  0.276E-03    4.11      10.1  T
   5    -24.4992417 -0.857386E-08  0.146E-03    4.11      19.0  T
   6    -24.4992417 -0.514396E-08  0.415E-04    4.11      66.8  T
   7    -24.4992417 -0.660052E-09  0.782E-05    4.11     354.5  T
     SCC iter.                  ...        0 min,  0.003 sec
     gradient                   ...        0 min,  0.001 sec
 * total energy  :   -24.1829080 Eh     change       -0.4883998E-03 Eh
   gradient norm :     0.0094748 Eh/α   predicted    -0.3411011E-03 ( -30.16%)
   displ. norm   :     0.1430812 α      lambda       -0.4430885E-03
   maximum displ.:     0.0836637 α      in ANC's #1, #26, #25, ...

........................................................................
.............................. CYCLE   17 ..............................
........................................................................
   1    -24.4999005 -0.244999E+02  0.782E-02    4.11       0.0  T
   2    -24.4999020 -0.158417E-05  0.475E-02    4.11       1.0  T
   3    -24.4999006  0.144017E-05  0.152E-02    4.11       1.8  T
   4    -24.4999027 -0.205760E-05  0.303E-03    4.11       9.2  T
   5    -24.4999027 -0.229783E-07  0.136E-03    4.11      20.4  T
   6    -24.4999027 -0.109898E-08  0.629E-04    4.11      44.1  T
   7    -24.4999027 -0.151715E-08  0.105E-04    4.11     263.2  T
     SCC iter.                  ...        0 min,  0.003 sec
     gradient                   ...        0 min,  0.001 sec
 * total energy  :   -24.1832083 Eh     change       -0.3003473E-03 Eh
   gradient norm :     0.0067832 Eh/α   predicted    -0.2260801E-03 ( -24.73%)
   displ. norm   :     0.0763109 α      lambda       -0.1884698E-03
   maximum displ.:     0.0475471 α      in ANC's #1, #26, #25, ...

........................................................................
.............................. CYCLE   18 ..............................
........................................................................
   1    -24.5013955 -0.245014E+02  0.479E-02    4.11       0.0  T
   2    -24.5013963 -0.774178E-06  0.285E-02    4.11       1.0  T
   3    -24.5013958  0.474258E-06  0.940E-03    4.11       3.0  T
   4    -24.5013966 -0.791655E-06  0.208E-03    4.11      13.4  T
   5    -24.5013966 -0.206487E-08  0.114E-03    4.11      24.4  T
   6    -24.5013966 -0.717225E-08  0.457E-04    4.11      60.7  T
   7    -24.5013966 -0.559691E-09  0.125E-04    4.11     221.2  T
     SCC iter.                  ...        0 min,  0.003 sec
     gradient                   ...        0 min,  0.001 sec
 * total energy  :   -24.1832932 Eh     change       -0.8486295E-04 Eh
   gradient norm :     0.0046489 Eh/α   predicted    -0.9478248E-04 (  11.69%)
   displ. norm   :     0.1368548 α      lambda       -0.1358715E-03
   maximum displ.:     0.0909012 α      in ANC's #1, #26, #25, ...

........................................................................
.............................. CYCLE   19 ..............................
........................................................................
   1    -24.4994023 -0.244994E+02  0.756E-02    4.10       0.0  T
   2    -24.4994038 -0.144009E-05  0.455E-02    4.10       1.0  T
   3    -24.4994031  0.695126E-06  0.115E-02    4.10       2.4  T
   4    -24.4994043 -0.126626E-05  0.334E-03    4.10       8.3  T
   5    -24.4994044 -0.283650E-07  0.143E-03    4.10      19.4  T
   6    -24.4994044 -0.542009E-09  0.444E-04    4.10      62.5  T
   7    -24.4994044 -0.903611E-09  0.149E-04    4.10     186.4  T
     SCC iter.                  ...        0 min,  0.003 sec
     gradient                   ...        0 min,  0.001 sec
 * total energy  :   -24.1832623 Eh     change        0.3087469E-04 Eh
   gradient norm :     0.0094054 Eh/α   predicted    -0.6920636E-04 (-324.15%)
   displ. norm   :     0.0851587 α      lambda       -0.1664184E-03
   maximum displ.:     0.0548123 α      in ANC's #1, #26, #25, ...

........................................................................
.............................. CYCLE   20 ..............................
........................................................................
   1    -24.5008380 -0.245008E+02  0.480E-02    4.11       0.0  T
   2    -24.5008387 -0.746043E-06  0.288E-02    4.11       1.0  T
   3    -24.5008384  0.321169E-06  0.822E-03    4.11       3.4  T
   4    -24.5008390 -0.608979E-06  0.242E-03    4.11      11.4  T
   5    -24.5008390 -0.149486E-07  0.106E-03    4.11      26.1  T
   6    -24.5008390 -0.334119E-09  0.425E-04    4.11      65.2  T
   7    -24.5008390 -0.966136E-09  0.106E-04    4.11     260.4  T
     SCC iter.                  ...        0 min,  0.003 sec
     gradient                   ...        0 min,  0.001 sec
 * total energy  :   -24.1833289 Eh     change       -0.6660922E-04 Eh
   gradient norm :     0.0010102 Eh/α   predicted    -0.8381321E-04 (  25.83%)
   displ. norm   :     0.0191351 α      lambda       -0.4734830E-05
   maximum displ.:     0.0104994 α      in ANC's #26, #1, #25, ...
 * RMSD in coord.:     0.5759285 α      energy gain  -0.1601971E-01 Eh

generating ANC from model Hessian ...
Using Lindh-Hessian (1995)
 Shifting diagonal of input Hessian by    1.4001418984261309E-003
 Lowest  eigenvalues of input Hessian
    0.000000    0.000000    0.000000    0.000000    0.000000    0.000000
    0.010000    0.017236    0.024143    0.027374    0.040724    0.047551
    0.076481    0.088788    0.093075    0.100948    0.102424    0.107272
 Highest eigenvalues
    1.513028    1.659026    1.864796    1.917931    2.052437    2.156224


........................................................................
.............................. CYCLE   21 ..............................
........................................................................
   1    -24.5007751 -0.245008E+02  0.109E-02    4.11       0.0  T
   2    -24.5007751 -0.151377E-07  0.668E-03    4.11       4.2  T
   3    -24.5007751 -0.678650E-08  0.675E-04    4.11      41.1  T
   4    -24.5007751 -0.195135E-08  0.387E-04    4.11      71.6  T
     SCC iter.                  ...        0 min,  0.002 sec
     gradient                   ...        0 min,  0.001 sec
 * total energy  :   -24.1833334 Eh     change       -0.4468167E-05 Eh
   gradient norm :     0.0006866 Eh/α   predicted     0.0000000E+00 (-100.00%)
   displ. norm   :     0.0101732 α      lambda       -0.1914163E-05
   maximum displ.:     0.0067708 α      in ANC's #1, #5, #6, ...

   *** GEOMETRY OPTIMIZATION CONVERGED AFTER 21 ITERATIONS ***

------------------------------------------------------------------------
 total energy gain   :        -0.0160242 Eh      -10.0553 kcal/mol
 total RMSD          :         0.5759285 a0        0.3048 Å
 total power (kW/mol):        -2.0034034 (step) -427.2438 (real)
------------------------------------------------------------------------

 ANCopt (total)                0 d,  0 h,  0 min,  0.098 sec
 optimizer setup                ...        0 min,  0.000 sec (  0.068%)
 model hessian                  ...        0 min,  0.003 sec (  2.579%)
 ANC generation                 ...        0 min,  0.001 sec (  0.654%)
 coordinate transformation      ...        0 min,  0.000 sec (  0.058%)
 single point calculation       ...        0 min,  0.092 sec ( 93.556%)
 optimization log               ...        0 min,  0.001 sec (  0.920%)
 hessian update                 ...        0 min,  0.000 sec (  0.191%)
 rational function              ...        0 min,  0.001 sec (  1.297%)

================
 final structure:
================
13
 xtb: 6.4.1 (bd6e46d)
C         0.52601396396215   -1.10499032857550    0.05424617244381
C        -0.77962919337734   -1.14833724937606    0.50844849695687
C        -1.52225388014233    0.01662773090903    0.51595073573101
C        -0.99375234813470    1.21985668088854    0.08271807568757
C         0.30984908887074    1.25566826427545   -0.36974521263471
C         1.07700433712382    0.09330021257828   -0.38709759521010
O         2.35388366006142    0.17495254769796   -0.84427135695322
F        -2.79922504325237   -0.02073981061151    0.95826922066946
H         1.12078522337416   -2.00839083365529    0.04183329705499
H        -1.21929080108769   -2.07084246439243    0.85235713067529
H        -1.60132649695043    2.11029791697661    0.10249230090436
H         0.75339309011510    2.17529078298210   -0.71475401766177
H         2.77444839943742   -0.69259344969717   -0.80044724766358

 Bond Distances (Angstroems)
 ---------------------------
C1-C2=1.3831         C1-C6=1.3908         C1-H9=1.0817         C2-C1=1.3831         C2-C3=1.3816         C2-H10=1.0782        
C3-C2=1.3816         C3-C4=1.3838         C3-F8=1.3519         C4-C3=1.3838         C4-C5=1.3804         C4-H11=1.0782        
C5-C4=1.3804         C5-C6=1.3928         C5-H12=1.0777        C6-C1=1.3908         C6-C5=1.3928         C6-O7=1.3587         
O7-C6=1.3587         O7-H13=0.9651        F8-C3=1.3519         H9-C1=1.0817         H10-C2=1.0782        H11-C4=1.0782        
H12-C5=1.0777        H13-O7=0.9651        
 C  H  Rav=1.0789 sigma=0.0016  Rmin=1.0777  Rmax=1.0817     4
 C  C  Rav=1.3854 sigma=0.0047  Rmin=1.3804  Rmax=1.3928     6
 O  H  Rav=0.9651 sigma=0.0000  Rmin=0.9651  Rmax=0.9651     1
 O  C  Rav=1.3587 sigma=0.0000  Rmin=1.3587  Rmax=1.3587     1
 F  C  Rav=1.3519 sigma=0.0000  Rmin=1.3519  Rmax=1.3519     1

 selected bond angles (degree)
 --------------------
C6-C1-C2=120.35                H9-C1-C2=119.78                H9-C1-C6=119.87                C3-C2-C1=118.87                
H10-C2-C1=121.10               H10-C2-C3=120.03               C4-C3-C2=121.75                F8-C3-C2=119.09                
F8-C3-C4=119.16                C5-C4-C3=119.07                H11-C4-C3=119.81               H11-C4-C5=121.12               
C6-C5-C4=120.17                H12-C5-C4=121.05               H12-C5-C6=118.78               C5-C6-C1=119.79                
O7-C6-C1=122.06                O7-C6-C5=118.14                H13-O7-C6=109.89               

 selected dihedral angles (degree)
 ---------------------------------
C3-C2-C1-C6=359.96            C3-C2-C1-H9=180.01            H10-C2-C1-C6=179.93           H10-C2-C1-H9=  0.00           
C4-C3-C2-C1=359.97            C4-C3-C2-H10=180.00           F8-C3-C2-C1=179.96            F8-C3-C2-H10=  0.00           
C5-C4-C3-C2=  0.05            C5-C4-C3-F8=180.06            H11-C4-C3-C2=180.03           H11-C4-C3-F8=  0.03           
C6-C5-C4-C3=  0.00            C6-C5-C4-H11=180.02           H12-C5-C4-C3=179.98           H12-C5-C4-H11=  0.00          
C5-C6-C1-C2=  0.08            C5-C6-C1-H9=180.03            O7-C6-C1-C2=180.22            O7-C6-C1-H9=  0.17            
C1-C6-C5-C4=359.95            C1-C6-C5-H12=179.96           O7-C6-C5-C4=179.81            O7-C6-C5-H12=359.83           
H13-O7-C6-C1=359.61           H13-O7-C6-C5=179.74           
           -------------------------------------------------
          |                Final Singlepoint                |
           -------------------------------------------------

          ...................................................
          :                      SETUP                      :
          :.................................................:
          :  # basis functions                  37          :
          :  # atomic orbitals                  37          :
          :  # shells                           21          :
          :  # electrons                        42          :
          :  max. iterations                   250          :
          :  Hamiltonian                  GFN2-xTB          :
          :  restarted?                      false          :
          :  GBSA solvation                  false          :
          :  PC potential                    false          :
          :  electronic temp.          300.0000000     K    :
          :  accuracy                    1.0000000          :
          :  -> integral cutoff          0.2500000E+02      :
          :  -> integral neglect         0.1000000E-07      :
          :  -> SCF convergence          0.1000000E-05 Eh   :
          :  -> wf. convergence          0.1000000E-03 e    :
          :  Broyden damping             0.4000000          :
          ...................................................

 iter      E             dE          RMSdq      gap      omega  full diag
   1    -24.5007751 -0.245008E+02  0.984E-05    4.11       0.0  T
   2    -24.5007751 -0.126654E-10  0.584E-05    4.11     475.0  T
   3    -24.5007751  0.532907E-12  0.358E-05    4.11     775.4  T

   *** convergence criteria satisfied after 3 iterations ***

         #    Occupation            Energy/Eh            Energy/eV
      -------------------------------------------------------------
         1        2.0000           -0.8118876             -22.0926
       ...           ...                  ...                  ...
        15        2.0000           -0.4953544             -13.4793
        16        2.0000           -0.4762537             -12.9595
        17        2.0000           -0.4714097             -12.8277
        18        2.0000           -0.4639931             -12.6259
        19        2.0000           -0.4358210             -11.8593
        20        2.0000           -0.4239481             -11.5362
        21        2.0000           -0.3934308             -10.7058 (HOMO)
        22                         -0.2425410              -6.5999 (LUMO)
        23                         -0.2266900              -6.1685
        24                         -0.1042282              -2.8362
        25                          0.0428541               1.1661
        26                          0.0683981               1.8612
       ...                                ...                  ...
        37                          0.6537714              17.7900
      -------------------------------------------------------------
                  HL-Gap            0.1508898 Eh            4.1059 eV
             Fermi-level           -0.3179859 Eh           -8.6528 eV

 SCC (total)                   0 d,  0 h,  0 min,  0.002 sec
 SCC setup                      ...        0 min,  0.000 sec (  2.215%)
 Dispersion                     ...        0 min,  0.000 sec (  2.083%)
 classical contributions        ...        0 min,  0.000 sec (  0.420%)
 integral evaluation            ...        0 min,  0.000 sec ( 10.759%)
 iterations                     ...        0 min,  0.001 sec ( 57.659%)
 molecular gradient             ...        0 min,  0.001 sec ( 23.936%)
 printout                       ...        0 min,  0.000 sec (  2.552%)

         :::::::::::::::::::::::::::::::::::::::::::::::::::::
         ::                     SUMMARY                     ::
         :::::::::::::::::::::::::::::::::::::::::::::::::::::
         :: total energy             -24.183333402956 Eh    ::
         :: gradient norm              0.000685846949 Eh/a0 ::
         :: HOMO-LUMO gap              4.105920308772 eV    ::
         ::.................................................::
         :: SCC energy               -24.500775083837 Eh    ::
         :: -> isotropic ES            0.031956856402 Eh    ::
         :: -> anisotropic ES          0.001600081702 Eh    ::
         :: -> anisotropic XC          0.002851398517 Eh    ::
         :: -> dispersion             -0.009295455489 Eh    ::
         :: repulsion energy           0.317430917465 Eh    ::
         :: add. restraining           0.000000000000 Eh    ::
         :: total charge               0.000000000000 e     ::
         :::::::::::::::::::::::::::::::::::::::::::::::::::::

           -------------------------------------------------
          |                Property Printout                |
           -------------------------------------------------

    * Orbital Energies and Occupations

         #    Occupation            Energy/Eh            Energy/eV
      -------------------------------------------------------------
         1        2.0000           -0.8118876             -22.0926
       ...           ...                  ...                  ...
         9        2.0000           -0.5552781             -15.1099
        10        2.0000           -0.5471502             -14.8887
        11        2.0000           -0.5386920             -14.6586
        12        2.0000           -0.5230903             -14.2340
        13        2.0000           -0.5140774             -13.9888
        14        2.0000           -0.5054620             -13.7543
        15        2.0000           -0.4953544             -13.4793
        16        2.0000           -0.4762537             -12.9595
        17        2.0000           -0.4714097             -12.8277
        18        2.0000           -0.4639931             -12.6259
        19        2.0000           -0.4358210             -11.8593
        20        2.0000           -0.4239481             -11.5362
        21        2.0000           -0.3934308             -10.7058 (HOMO)
        22                         -0.2425410              -6.5999 (LUMO)
        23                         -0.2266900              -6.1685
        24                         -0.1042282              -2.8362
        25                          0.0428541               1.1661
        26                          0.0683981               1.8612
        27                          0.1247259               3.3940
        28                          0.1394234               3.7939
        29                          0.1649854               4.4895
        30                          0.1845784               5.0226
        31                          0.1984717               5.4007
        32                          0.3692097              10.0467
       ...                                ...                  ...
        37                          0.6537714              17.7900
      -------------------------------------------------------------
                  HL-Gap            0.1508898 Eh            4.1059 eV
             Fermi-level           -0.3179859 Eh           -8.6528 eV

     #   Z          covCN         q      C6AA      α(0)
     1   6 C        2.923    -0.069    29.731     8.942
     2   6 C        2.917    -0.049    29.215     8.863
     3   6 C        2.787     0.159    24.542     8.115
     4   6 C        2.917    -0.048    29.198     8.861
     5   6 C        2.923    -0.052    29.295     8.876
     6   6 C        2.845     0.143    24.872     8.173
     7   8 O        1.660    -0.385    20.551     6.120
     8   9 F        0.787    -0.230    11.545     4.014
     9   1 H        0.925     0.039     2.458     2.452
    10   1 H        0.926     0.060     2.195     2.317
    11   1 H        0.926     0.064     2.158     2.297
    12   1 H        0.926     0.064     2.157     2.296
    13   1 H        0.805     0.303     0.711     1.325

 Mol. C6AA /au·bohr⁶  :       2134.637021
 Mol. C8AA /au·bohr⁸  :      51729.759750
 Mol. α(0) /au        :         72.650560


Wiberg/Mayer (AO) data.
largest (>0.10) Wiberg bond orders for each atom

 ---------------------------------------------------------------------------
     #   Z sym  total        # sym  WBO       # sym  WBO       # sym  WBO
 ---------------------------------------------------------------------------
     1   6 C    3.987 --     2 C    1.443     6 C    1.375     9 H    0.966
                             4 C    0.106
     2   6 C    3.990 --     1 C    1.443     3 C    1.400    10 H    0.967
                             5 C    0.109
     3   6 C    3.886 --     2 C    1.400     4 C    1.388     8 F    0.954
     4   6 C    3.990 --     5 C    1.460     3 C    1.388    11 H    0.967
                             1 C    0.106
     5   6 C    3.988 --     4 C    1.460     6 C    1.361    12 H    0.967
                             2 C    0.109
     6   6 C    3.942 --     1 C    1.375     5 C    1.361     7 O    1.079
     7   8 O    2.125 --     6 C    1.079    13 H    0.887
     8   9 F    1.079 --     3 C    0.954
     9   1 H    0.998 --     1 C    0.966
    10   1 H    0.996 --     2 C    0.967
    11   1 H    0.996 --     4 C    0.967
    12   1 H    0.996 --     5 C    0.967
    13   1 H    0.908 --     7 O    0.887
 ---------------------------------------------------------------------------

Topologies differ in total number of bonds
Writing topology from bond orders to xtbtopo.mol

molecular dipole:
                 x           y           z       tot (Debye)
 q only:        0.833      -0.338      -0.209
   full:        0.904      -0.563      -0.185       2.746
molecular quadrupole (traceless):
                xx          xy          yy          xz          yz          zz
 q only:       -4.123      -4.049       4.747       2.375       0.443      -0.624
  q+dip:       -5.446      -6.014       8.100       2.547      -0.027      -2.654
   full:       -5.460      -5.829       6.463       3.203       0.680      -1.003

           -------------------------------------------------
          |                Geometry Summary                 |
           -------------------------------------------------

      molecular mass/u    :      112.1019272
   center of mass at/Å    :       -0.2701613       0.0526671       0.0805847
  moments of inertia/u·Å² :        0.8897616E+02   0.3450648E+03   0.4340405E+03
rotational constants/cm⁻¹ :        0.1894623E+00   0.4885353E-01   0.3883885E-01

 * 12 selected distances

     #   Z          #   Z                                           value/Å
     1   6 C        2   6 C                                       1.3830700
     2   6 C        3   6 C                                       1.3815539
     3   6 C        4   6 C                                       1.3837501
     4   6 C        5   6 C                                       1.3803558
     1   6 C        6   6 C                                       1.3907821
     5   6 C        6   6 C                                       1.3928129 (max)
     6   6 C        7   8 O                                       1.3587111
     1   6 C        9   1 H                                       1.0816836
     2   6 C       10   1 H                                       1.0782353
     4   6 C       11   1 H                                       1.0781572
     5   6 C       12   1 H                                       1.0777142
     7   8 O       13   1 H                                       0.9651069 (min)

 * 4 distinct bonds (by element types)

   Z      Z             #   av. dist./Å        max./Å        min./Å
   1 H    6 C           4     1.0789476     1.0816836     1.0777142
   6 C    6 C           6     1.3853875     1.3928129     1.3803558
   1 H    8 O           1     0.9651069     0.9651069     0.9651069
   6 C    8 O           1     1.3587111     1.3587111     1.3587111


optimized geometry written to: xtbopt.xyz


           -------------------------------------------------
          | TOTAL ENERGY              -24.183333402956 Eh   |
          | GRADIENT NORM               0.000685846949 Eh/α |
          | HOMO-LUMO GAP               4.105920308772 eV   |
           -------------------------------------------------

------------------------------------------------------------------------
 * finished run on 2022/03/19 at 15:14:14.213     
------------------------------------------------------------------------
 total:
 * wall-time:     0 d,  0 h,  0 min,  0.132 sec
 *  cpu-time:     0 d,  0 h,  0 min,  1.872 sec
 * ratio c/w:    14.171 speedup
 SCF:
 * wall-time:     0 d,  0 h,  0 min,  0.009 sec
 *  cpu-time:     0 d,  0 h,  0 min,  0.133 sec
 * ratio c/w:    14.810 speedup
 ANC optimizer:
 * wall-time:     0 d,  0 h,  0 min,  0.102 sec
 *  cpu-time:     0 d,  0 h,  0 min,  1.514 sec
 * ratio c/w:    14.911 speedup

