
                                 *****************
                                 * O   R   C   A *
                                 *****************

                                            #,                                       
                                            ###                                      
                                            ####                                     
                                            #####                                    
                                            ######                                   
                                           ########,                                 
                                     ,,################,,,,,                         
                               ,,#################################,,                 
                          ,,##########################################,,             
                       ,#########################################, ''#####,          
                    ,#############################################,,   '####,        
                  ,##################################################,,,,####,       
                ,###########''''           ''''###############################       
              ,#####''   ,,,,##########,,,,          '''####'''          '####       
            ,##' ,,,,###########################,,,                        '##       
           ' ,,###''''                  '''############,,,                           
         ,,##''                                '''############,,,,        ,,,,,,###''
      ,#''                                            '''#######################'''  
     '                                                          ''''####''''         
             ,#######,   #######,   ,#######,      ##                                
            ,#'     '#,  ##    ##  ,#'     '#,    #''#        ######   ,####,        
            ##       ##  ##   ,#'  ##            #'  '#       #        #'  '#        
            ##       ##  #######   ##           ,######,      #####,   #    #        
            '#,     ,#'  ##    ##  '#,     ,#' ,#      #,         ##   #,  ,#        
             '#######'   ##     ##  '#######'  #'      '#     #####' # '####'        



                  #######################################################
                  #                        -***-                        #
                  #          Department of theory and spectroscopy      #
                  #    Directorship and core code : Frank Neese         #
                  #        Max Planck Institute fuer Kohlenforschung    #
                  #                Kaiser Wilhelm Platz 1               #
                  #                 D-45470 Muelheim/Ruhr               #
                  #                      Germany                        #
                  #                                                     #
                  #                  All rights reserved                #
                  #                        -***-                        #
                  #######################################################


                         Program Version 5.0.1 -  RELEASE  -


 With contributions from (in alphabetic order):
   Daniel Aravena         : Magnetic Suceptibility
   Michael Atanasov       : Ab Initio Ligand Field Theory (pilot matlab implementation)
   Alexander A. Auer      : GIAO ZORA, VPT2 properties, NMR spectrum
   Ute Becker             : Parallelization
   Giovanni Bistoni       : ED, misc. LED, open-shell LED, HFLD
   Martin Brehm           : Molecular dynamics
   Dmytro Bykov           : SCF Hessian
   Vijay G. Chilkuri      : MRCI spin determinant printing, contributions to CSF-ICE
   Dipayan Datta          : RHF DLPNO-CCSD density
   Achintya Kumar Dutta   : EOM-CC, STEOM-CC
   Dmitry Ganyushin       : Spin-Orbit,Spin-Spin,Magnetic field MRCI
   Miquel Garcia          : C-PCM and meta-GGA Hessian, CC/C-PCM, Gaussian charge scheme
   Yang Guo               : DLPNO-NEVPT2, F12-NEVPT2, CIM, IAO-localization
   Andreas Hansen         : Spin unrestricted coupled pair/coupled cluster methods
   Benjamin Helmich-Paris : MC-RPA, TRAH-SCF, COSX integrals
   Lee Huntington         : MR-EOM, pCC
   Robert Izsak           : Overlap fitted RIJCOSX, COSX-SCS-MP3, EOM
   Marcus Kettner         : VPT2
   Christian Kollmar      : KDIIS, OOCD, Brueckner-CCSD(T), CCSD density, CASPT2, CASPT2-K
   Simone Kossmann        : Meta GGA functionals, TD-DFT gradient, OOMP2, MP2 Hessian
   Martin Krupicka        : Initial AUTO-CI
   Lucas Lang             : DCDCAS
   Marvin Lechner         : AUTO-CI (C++ implementation), FIC-MRCC
   Dagmar Lenk            : GEPOL surface, SMD
   Dimitrios Liakos       : Extrapolation schemes; Compound Job, initial MDCI parallelization
   Dimitrios Manganas     : Further ROCIS development; embedding schemes
   Dimitrios Pantazis     : SARC Basis sets
   Anastasios Papadopoulos: AUTO-CI, single reference methods and gradients
   Taras Petrenko         : DFT Hessian,TD-DFT gradient, ASA, ECA, R-Raman, ABS, FL, XAS/XES, NRVS
   Peter Pinski           : DLPNO-MP2, DLPNO-MP2 Gradient
   Christoph Reimann      : Effective Core Potentials
   Marius Retegan         : Local ZFS, SOC
   Christoph Riplinger    : Optimizer, TS searches, QM/MM, DLPNO-CCSD(T), (RO)-DLPNO pert. Triples
   Tobias Risthaus        : Range-separated hybrids, TD-DFT gradient, RPA, STAB
   Michael Roemelt        : Original ROCIS implementation
   Masaaki Saitow         : Open-shell DLPNO-CCSD energy and density
   Barbara Sandhoefer     : DKH picture change effects
   Avijit Sen             : IP-ROCIS
   Kantharuban Sivalingam : CASSCF convergence, NEVPT2, FIC-MRCI
   Bernardo de Souza      : ESD, SOC TD-DFT
   Georgi Stoychev        : AutoAux, RI-MP2 NMR, DLPNO-MP2 response
   Willem Van den Heuvel  : Paramagnetic NMR
   Boris Wezisla          : Elementary symmetry handling
   Frank Wennmohs         : Technical directorship


 We gratefully acknowledge several colleagues who have allowed us to
 interface, adapt or use parts of their codes:
   Stefan Grimme, W. Hujo, H. Kruse, P. Pracht,  : VdW corrections, initial TS optimization,
                  C. Bannwarth, S. Ehlert          DFT functionals, gCP, sTDA/sTD-DF
   Ed Valeev, F. Pavosevic, A. Kumar             : LibInt (2-el integral package), F12 methods
   Garnet Chan, S. Sharma, J. Yang, R. Olivares  : DMRG
   Ulf Ekstrom                                   : XCFun DFT Library
   Mihaly Kallay                                 : mrcc  (arbitrary order and MRCC methods)
   Jiri Pittner, Ondrej Demel                    : Mk-CCSD
   Frank Weinhold                                : gennbo (NPA and NBO analysis)
   Christopher J. Cramer and Donald G. Truhlar   : smd solvation model
   Lars Goerigk                                  : TD-DFT with DH, B97 family of functionals
   V. Asgeirsson, H. Jonsson                     : NEB implementation
   FAccTs GmbH                                   : IRC, NEB, NEB-TS, DLPNO-Multilevel, CI-OPT
                                                   MM, QMMM, 2- and 3-layer-ONIOM, Crystal-QMMM,
                                                   LR-CPCM, SF, NACMEs, symmetry and pop. for TD-DFT,
                                                   nearIR, NL-DFT gradient (VV10), updates on ESD,
                                                   ML-optimized integration grids
   S Lehtola, MJT Oliveira, MAL Marques          : LibXC Library
   Liviu Ungur et al                             : ANISO software


 Your calculation uses the libint2 library for the computation of 2-el integrals
 For citations please refer to: http://libint.valeyev.net

 Your ORCA version has been built with support for libXC version: 5.1.0
 For citations please refer to: https://tddft.org/programs/libxc/

 This ORCA versions uses:
   CBLAS   interface :  Fast vector & matrix operations
   LAPACKE interface :  Fast linear algebra routines
   SCALAPACK package :  Parallel linear algebra routines
   Shared memory     :  Shared parallel matrices
   BLAS/LAPACK       :  OpenBLAS 0.3.15  USE64BITINT DYNAMIC_ARCH NO_AFFINITY Zen SINGLE_THREADED
        Core in use  :  Zen
   Copyright (c) 2011-2014, The OpenBLAS Project


Your calculation utilizes the atom-pairwise dispersion correction
based on tight binding partial charges (D4)
Cite in your paper:
E.Caldeweyher, C.Bannwarth, S.Grimme, J.Chem.Phys., (2017), 147, 034112.
E.Caldeweyher, S.Ehlert, A.Hansen, H.Neugebauer, S.Grimme, J.Chem.Phys., (2018), in progress.
   

================================================================================

----- Orbital basis set information -----
Your calculation utilizes the basis: def2-SVP
   F. Weigend and R. Ahlrichs, Phys. Chem. Chem. Phys. 7, 3297 (2005).

----- AuxJ basis set information -----
Your calculation utilizes the auxiliary basis: def2/J
   F. Weigend, Phys. Chem. Chem. Phys. 8, 1057 (2006).

================================================================================
                                        WARNINGS
                       Please study these warnings very carefully!
================================================================================


INFO   : the flag for use of the SHARK integral package has been found!

================================================================================
                                       INPUT FILE
================================================================================
NAME = p-fluorophenolate_orca.inp
|  1> ! Freq PBE0 def2-SVP def2/J RIJCOSX D4
|  2> %output 
|  3> xyzfile=True 
|  4> end 
|  5> %scf 
|  6> maxiter 250 
|  7> end
|  8> %output
|  9> Print[P_Hirshfeld] = 1
| 10> end
| 11> % maxcore
| 12> 4000
| 13> %pal nprocs 8
| 14> end
| 15> *xyz -1 1
| 16> C    1.03635198   0.94718107  -0.00717115 
| 17> C   -0.29813111   1.37456818  -0.00854567 
| 18> C   -1.33788970   0.43142946  -0.00137928 
| 19> C   -1.04502292  -0.94146452   0.00716646 
| 20> C    0.28774093  -1.37419374   0.00857687 
| 21> C    1.43362528  -0.46233896   0.00146834 
| 22> O    2.63900246  -0.85103227   0.00282623 
| 23> F   -2.65434453   0.85611628  -0.00278028 
| 24> H    1.85606297   1.68722645  -0.01276717 
| 25> H   -0.55603653   2.44877935  -0.01521146 
| 26> H   -1.88198328  -1.66254884   0.01268603 
| 27> H    0.52052442  -2.45372245   0.01533110 
| 28> *
| 29> 
| 30>                          ****END OF INPUT****
================================================================================

                       ****************************
                       * Single Point Calculation *
                       ****************************

---------------------------------
CARTESIAN COORDINATES (ANGSTROEM)
---------------------------------
  C      1.036352    0.947181   -0.007171
  C     -0.298131    1.374568   -0.008546
  C     -1.337890    0.431429   -0.001379
  C     -1.045023   -0.941465    0.007166
  C      0.287741   -1.374194    0.008577
  C      1.433625   -0.462339    0.001468
  O      2.639002   -0.851032    0.002826
  F     -2.654345    0.856116   -0.002780
  H      1.856063    1.687226   -0.012767
  H     -0.556037    2.448779   -0.015211
  H     -1.881983   -1.662549    0.012686
  H      0.520524   -2.453722    0.015331

----------------------------
CARTESIAN COORDINATES (A.U.)
----------------------------
  NO LB      ZA    FRAG     MASS         X           Y           Z
   0 C     6.0000    0    12.011    1.958421    1.789913   -0.013552
   1 C     6.0000    0    12.011   -0.563386    2.597557   -0.016149
   2 C     6.0000    0    12.011   -2.528245    0.815284   -0.002606
   3 C     6.0000    0    12.011   -1.974807   -1.779110    0.013543
   4 C     6.0000    0    12.011    0.543752   -2.596850    0.016208
   5 C     6.0000    0    12.011    2.709159   -0.873694    0.002775
   6 O     8.0000    0    15.999    4.986992   -1.608218    0.005341
   7 F     9.0000    0    18.998   -5.015984    1.617825   -0.005254
   8 H     1.0000    0     1.008    3.507451    3.188396   -0.024126
   9 H     1.0000    0     1.008   -1.050757    4.627522   -0.028745
  10 H     1.0000    0     1.008   -3.556433   -3.141762    0.023973
  11 H     1.0000    0     1.008    0.983649   -4.636863    0.028972

--------------------------------
INTERNAL COORDINATES (ANGSTROEM)
--------------------------------
 C      0   0   0     0.000000000000     0.00000000     0.00000000
 C      1   0   0     1.401251850523     0.00000000     0.00000000
 C      2   1   0     1.403801954617   120.03044387     0.00000000
 C      3   2   1     1.403809766607   120.16949975     0.00000000
 C      4   3   2     1.401255168399   120.02952770     0.00000000
 C      5   4   3     1.464438668768   123.49978135     0.00000000
 O      6   5   4     1.266498511317   123.61486782   179.99458801
 F      3   2   1     1.383262150611   119.90919317   180.00120463
 H      1   2   3     1.104366147175   120.16470683   180.00187045
 H      2   1   3     1.104757564434   121.25865810   179.99996195
 H      4   3   2     1.104760474680   118.70571514   180.00020160
 H      5   4   3     1.104362263279   120.15625161   179.99777036

---------------------------
INTERNAL COORDINATES (A.U.)
---------------------------
 C      0   0   0     0.000000000000     0.00000000     0.00000000
 C      1   0   0     2.647982242140     0.00000000     0.00000000
 C      2   1   0     2.652801240490   120.03044387     0.00000000
 C      3   2   1     2.652816003010   120.16949975     0.00000000
 C      4   3   2     2.647988512016   120.02952770     0.00000000
 C      5   4   3     2.767388023895   123.49978135     0.00000000
 O      6   5   4     2.393335335409   123.61486782   179.99458801
 F      3   2   1     2.613986636074   119.90919317   180.00120463
 H      1   2   3     2.086949569734   120.16470683   180.00187045
 H      2   1   3     2.087689241158   121.25865810   179.99996195
 H      4   3   2     2.087694740725   118.70571514   180.00020160
 H      5   4   3     2.086942230234   120.15625161   179.99777036

---------------------
BASIS SET INFORMATION
---------------------
There are 4 groups of distinct atoms

 Group   1 Type C   : 7s4p1d contracted to 3s2p1d pattern {511/31/1}
 Group   2 Type O   : 7s4p1d contracted to 3s2p1d pattern {511/31/1}
 Group   3 Type F   : 7s4p1d contracted to 3s2p1d pattern {511/31/1}
 Group   4 Type H   : 4s1p contracted to 2s1p pattern {31/1}

Atom   0C    basis set group =>   1
Atom   1C    basis set group =>   1
Atom   2C    basis set group =>   1
Atom   3C    basis set group =>   1
Atom   4C    basis set group =>   1
Atom   5C    basis set group =>   1
Atom   6O    basis set group =>   2
Atom   7F    basis set group =>   3
Atom   8H    basis set group =>   4
Atom   9H    basis set group =>   4
Atom  10H    basis set group =>   4
Atom  11H    basis set group =>   4
---------------------------------
AUXILIARY/J BASIS SET INFORMATION
---------------------------------
There are 4 groups of distinct atoms

 Group   1 Type C   : 12s5p4d2f1g contracted to 6s4p3d1f1g pattern {711111/2111/211/2/1}
 Group   2 Type O   : 12s5p4d2f1g contracted to 6s4p3d1f1g pattern {711111/2111/211/2/1}
 Group   3 Type F   : 12s5p4d2f1g contracted to 6s4p3d1f1g pattern {711111/2111/211/2/1}
 Group   4 Type H   : 5s2p1d contracted to 3s1p1d pattern {311/2/1}

Atom   0C    basis set group =>   1
Atom   1C    basis set group =>   1
Atom   2C    basis set group =>   1
Atom   3C    basis set group =>   1
Atom   4C    basis set group =>   1
Atom   5C    basis set group =>   1
Atom   6O    basis set group =>   2
Atom   7F    basis set group =>   3
Atom   8H    basis set group =>   4
Atom   9H    basis set group =>   4
Atom  10H    basis set group =>   4
Atom  11H    basis set group =>   4


           ************************************************************
           *        Program running with 8 parallel MPI-processes     *
           *              working on a common directory               *
           ************************************************************
------------------------------------------------------------------------------
                           ORCA GTO INTEGRAL CALCULATION
                           -- RI-GTO INTEGRALS CHOSEN --
------------------------------------------------------------------------------
------------------------------------------------------------------------------
                   ___                                                        
                  /   \      - P O W E R E D   B Y -                         
                 /     \                                                     
                 |  |  |   _    _      __       _____    __    __             
                 |  |  |  | |  | |    /  \     |  _  \  |  |  /  |          
                  \  \/   | |  | |   /    \    | | | |  |  | /  /          
                 / \  \   | |__| |  /  /\  \   | |_| |  |  |/  /          
                |  |  |   |  __  | /  /__\  \  |    /   |      \           
                |  |  |   | |  | | |   __   |  |    \   |  |\   \          
                \     /   | |  | | |  |  |  |  | |\  \  |  | \   \       
                 \___/    |_|  |_| |__|  |__|  |_| \__\ |__|  \__/        
                                                                              
                      - O R C A' S   B I G   F R I E N D -                    
                                      &                                       
                       - I N T E G R A L  F E E D E R -                       
                                                                              
 v1 FN, 2020, v2 2021                                                         
------------------------------------------------------------------------------


Reading SHARK input file p-fluorophenolate_orca.SHARKINP.tmp ... ok
----------------------
SHARK INTEGRAL PACKAGE
----------------------

Number of atoms                             ...     12
Number of basis functions                   ...    132
Number of shells                            ...     60
Maximum angular momentum                    ...      2
Integral batch strategy                     ... SHARK/LIBINT Hybrid
RI-J (if used) integral strategy            ... SPLIT-RIJ (Revised 2003 algorithm where possible)
Printlevel                                  ...      1
Contraction scheme used                     ... SEGMENTED contraction
Coulomb Range Separation                    ... NOT USED
Exchange Range Separation                   ... NOT USED
Finite Nucleus Model                        ... NOT USED
Auxiliary Coulomb fitting basis             ... AVAILABLE
   # of basis functions in Aux-J            ...    436
   # of shells in Aux-J                     ...    140
   Maximum angular momentum in Aux-J        ...      4
Auxiliary J/K fitting basis                 ... NOT available
Auxiliary Correlation fitting basis         ... NOT available
Auxiliary 'external' fitting basis          ... NOT available
Integral threshold                          ...     1.000000e-10
Primitive cut-off                           ...     1.000000e-11
Primitive pair pre-selection threshold      ...     1.000000e-11

Calculating pre-screening integrals         ... done (  0.0 sec) Dimension = 60
Organizing shell pair data                  ... done (  0.0 sec)
Shell pair information
Total number of shell pairs                 ...      1830
Shell pairs after pre-screening             ...      1722
Total number of primitive shell pairs       ...      6902
Primitive shell pairs kept                  ...      4809
          la=0 lb=0:    491 shell pairs
          la=1 lb=0:    605 shell pairs
          la=1 lb=1:    202 shell pairs
          la=2 lb=0:    238 shell pairs
          la=2 lb=1:    152 shell pairs
          la=2 lb=2:     34 shell pairs

Calculating one electron integrals          ... done (  0.0 sec)
Calculating RI/J V-Matrix + Cholesky decomp.... done (  0.0 sec)
Calculating Nuclear repulsion               ... done (  0.0 sec) ENN=    326.540418066286 Eh

SHARK setup successfully completed in   0.1 seconds

Maximum memory used throughout the entire GTOINT-calculation: 8.9 MB


           ************************************************************
           *        Program running with 8 parallel MPI-processes     *
           *              working on a common directory               *
           ************************************************************
-------------------------------------------------------------------------------
                                 ORCA SCF
-------------------------------------------------------------------------------

------------
SCF SETTINGS
------------
Hamiltonian:
 Density Functional     Method          .... DFT(GTOs)
 Exchange Functional    Exchange        .... PBE
   PBE kappa parameter   XKappa         ....  0.804000
   PBE mue parameter    XMuePBE         ....  0.219520
 Correlation Functional Correlation     .... PBE
   PBE beta parameter  CBetaPBE         ....  0.066725
 LDA part of GGA corr.  LDAOpt          .... PW91-LDA
 Gradients option       PostSCFGGA      .... off
 Hybrid DFT is turned on
   Fraction HF Exchange ScalHFX         ....  0.250000
   Scaling of DF-GGA-X  ScalDFX         ....  0.750000
   Scaling of DF-GGA-C  ScalDFC         ....  1.000000
   Scaling of DF-LDA-C  ScalLDAC        ....  1.000000
   Perturbative correction              ....  0.000000
   Density functional embedding theory  .... OFF
   NL short-range parameter             ....  6.900000
 RI-approximation to the Coulomb term is turned on
   Number of AuxJ basis functions       .... 436
   RIJ-COSX (HFX calculated with COS-X)).... on


General Settings:
 Integral files         IntName         .... p-fluorophenolate_orca
 Hartree-Fock type      HFTyp           .... RHF
 Total Charge           Charge          ....   -1
 Multiplicity           Mult            ....    1
 Number of Electrons    NEL             ....   58
 Basis Dimension        Dim             ....  132
 Nuclear Repulsion      ENuc            ....    326.5404180663 Eh

Convergence Acceleration:
 DIIS                   CNVDIIS         .... on
   Start iteration      DIISMaxIt       ....    12
   Startup error        DIISStart       ....  0.200000
   # of expansion vecs  DIISMaxEq       ....     5
   Bias factor          DIISBfac        ....   1.050
   Max. coefficient     DIISMaxC        ....  10.000
 Trust-Rad. Augm. Hess. CNVTRAH         .... auto
   Auto Start mean grad. ratio tolernc. ....  1.125000
   Auto Start start iteration           ....    20
   Auto Start num. interpolation iter.  ....    10
   Max. Number of Micro iterations      ....    16
   Max. Number of Macro iterations      .... Maxiter - #DIIS iter
   Number of Davidson start vectors     ....     2
   Converg. threshold I  (grad. norm)   ....   5.000e-05
   Converg. threshold II (energy diff.) ....   1.000e-06
   Grad. Scal. Fac. for Micro threshold ....   0.100
   Minimum threshold for Micro iter.    ....   0.010
   NR start threshold (gradient norm)   ....   0.001
   Initial trust radius                 ....   0.400
   Minimum AH scaling param. (alpha)    ....   1.000
   Maximum AH scaling param. (alpha)    .... 1000.000
   Orbital update algorithm             .... Taylor
   White noise on init. David. guess    .... on
   Maximum white noise                  ....   0.010
   Quad. conv. algorithm                .... NR
 SOSCF                  CNVSOSCF        .... on
   Start iteration      SOSCFMaxIt      ....   150
   Startup grad/error   SOSCFStart      ....  0.003300
 Level Shifting         CNVShift        .... on
   Level shift para.    LevelShift      ....    0.2500
   Turn off err/grad.   ShiftErr        ....    0.0010
 Zerner damping         CNVZerner       .... off
 Static damping         CNVDamp         .... on
   Fraction old density DampFac         ....    0.7000
   Max. Damping (<1)    DampMax         ....    0.9800
   Min. Damping (>=0)   DampMin         ....    0.0000
   Turn off err/grad.   DampErr         ....    0.1000
 Fernandez-Rico         CNVRico         .... off

SCF Procedure:
 Maximum # iterations   MaxIter         ....   250
 SCF integral mode      SCFMode         .... Direct
   Integral package                     .... SHARK and LIBINT hybrid scheme
 Reset frequency        DirectResetFreq ....    20
 Integral Threshold     Thresh          ....  1.000e-10 Eh
 Primitive CutOff       TCut            ....  1.000e-11 Eh

Convergence Tolerance:
 Convergence Check Mode ConvCheckMode   .... Total+1el-Energy
 Convergence forced     ConvForced      .... 0
 Energy Change          TolE            ....  1.000e-06 Eh
 1-El. energy change                    ....  1.000e-03 Eh
 Orbital Gradient       TolG            ....  5.000e-05
 Orbital Rotation angle TolX            ....  5.000e-05
 DIIS Error             TolErr          ....  1.000e-06


Diagonalization of the overlap matrix:
Smallest eigenvalue                        ... 3.078e-04
Time for diagonalization                   ...    0.002 sec
Threshold for overlap eigenvalues          ... 1.000e-08
Number of eigenvalues below threshold      ... 0
Time for construction of square roots      ...    0.001 sec
Total time needed                          ...    0.004 sec

Time for model grid setup =    0.043 sec

------------------------------
INITIAL GUESS: MODEL POTENTIAL
------------------------------
Loading Hartree-Fock densities                     ... done
Calculating cut-offs                               ... done
Initializing the effective Hamiltonian             ... done
Setting up the integral package (SHARK)            ... done
Starting the Coulomb interaction                   ... done (   0.0 sec)
Reading the grid                                   ... done
Mapping shells                                     ... done
Starting the XC term evaluation                    ... done (   0.0 sec)
  promolecular density results
     # of electrons  =     57.001893251
     EX              =    -49.912217989
     EC              =     -1.901626296
     EX+EC           =    -51.813844285
Transforming the Hamiltonian                       ... done (   0.0 sec)
Diagonalizing the Hamiltonian                      ... done (   0.0 sec)
Back transforming the eigenvectors                 ... done (   0.0 sec)
Now organizing SCF variables                       ... done
                      ------------------
                      INITIAL GUESS DONE (   0.1 sec)
                      ------------------
-------------------
DFT GRID GENERATION
-------------------

General Integration Accuracy     IntAcc      ... 4.388
Radial Grid Type                 RadialGrid  ... OptM3 with GC (2021)
Angular Grid (max. ang.)         AngularGrid ... 4 (Lebedev-302)
Angular grid pruning method      GridPruning ... 4 (adaptive)
Weight generation scheme         WeightScheme... Becke
Basis function cutoff            BFCut       ... 1.0000e-10
Integration weight cutoff        WCut        ... 1.0000e-14
Angular grids for H and He will be reduced by one unit
Partially contracted basis set               ... off
Rotationally invariant grid construction     ... off

Total number of grid points                  ...    61289
Total number of batches                      ...      964
Average number of points per batch           ...       63
Average number of grid points per atom       ...     5107
Time for grid setup =    0.273 sec

--------------------
COSX GRID GENERATION
--------------------

GRIDX 1
-------
General Integration Accuracy     IntAcc      ... 3.816
Radial Grid Type                 RadialGrid  ... OptM3 with GC (2021)
Angular Grid (max. ang.)         AngularGrid ... 1 (Lebedev-50)
Angular grid pruning method      GridPruning ... 4 (adaptive)
Weight generation scheme         WeightScheme... Becke
Basis function cutoff            BFCut       ... 1.0000e-10
Integration weight cutoff        WCut        ... 1.0000e-14
Angular grids for H and He will be reduced by one unit
Partially contracted basis set               ... on
Rotationally invariant grid construction     ... off

Total number of grid points                  ...     7803
Total number of batches                      ...      127
Average number of points per batch           ...       61
Average number of grid points per atom       ...      650
UseSFitting                                  ... on

GRIDX 2
-------
General Integration Accuracy     IntAcc      ... 4.020
Radial Grid Type                 RadialGrid  ... OptM3 with GC (2021)
Angular Grid (max. ang.)         AngularGrid ... 2 (Lebedev-110)
Angular grid pruning method      GridPruning ... 4 (adaptive)
Weight generation scheme         WeightScheme... Becke
Basis function cutoff            BFCut       ... 1.0000e-10
Integration weight cutoff        WCut        ... 1.0000e-14
Angular grids for H and He will be reduced by one unit
Partially contracted basis set               ... on
Rotationally invariant grid construction     ... off

Total number of grid points                  ...    17654
Total number of batches                      ...      282
Average number of points per batch           ...       62
Average number of grid points per atom       ...     1471
UseSFitting                                  ... on

GRIDX 3
-------
General Integration Accuracy     IntAcc      ... 4.338
Radial Grid Type                 RadialGrid  ... OptM3 with GC (2021)
Angular Grid (max. ang.)         AngularGrid ... 3 (Lebedev-194)
Angular grid pruning method      GridPruning ... 4 (adaptive)
Weight generation scheme         WeightScheme... Becke
Basis function cutoff            BFCut       ... 1.0000e-10
Integration weight cutoff        WCut        ... 1.0000e-14
Angular grids for H and He will be reduced by one unit
Partially contracted basis set               ... on
Rotationally invariant grid construction     ... off

Total number of grid points                  ...    38971
Total number of batches                      ...      617
Average number of points per batch           ...       63
Average number of grid points per atom       ...     3248
UseSFitting                                  ... on

Time for X-Grid setup             =    0.194 sec

--------------
SCF ITERATIONS
--------------
ITER       Energy         Delta-E        Max-DP      RMS-DP      [F,P]     Damp
               ***  Starting incremental Fock matrix formation  ***
  0   -405.1460861968   0.000000000000 0.16000291  0.00465289  0.3063110 0.7000
  1   -405.2576443730  -0.111558176139 0.10895621  0.00325911  0.1267909 0.7000
                               ***Turning on DIIS***
  2   -405.3025089531  -0.044864580073 0.09568696  0.00451698  0.0352997 0.0000
  3   -405.3704045234  -0.067895570340 0.10792468  0.00274615  0.0741885 0.0000
  4   -405.3870643635  -0.016659840145 0.01252183  0.00058367  0.0133746 0.0000
  5   -405.3881820122  -0.001117648666 0.00976740  0.00026855  0.0071978 0.0000
                      *** Initiating the SOSCF procedure ***
                           *** Shutting down DIIS ***
                      *** Re-Reading the Fockian *** 
                      *** Removing any level shift *** 
ITER      Energy       Delta-E        Grad      Rot      Max-DP    RMS-DP
  6   -405.38829009  -0.0001080755  0.000648  0.000648  0.002164  0.000088
               *** Restarting incremental Fock matrix formation ***
  7   -405.38845625  -0.0001661582  0.000253  0.000734  0.001314  0.000064
  8   -405.38845724  -0.0000009921  0.000329  0.000879  0.000736  0.000030
  9   -405.38845830  -0.0000010577  0.000143  0.000392  0.000687  0.000022
 10   -405.38845846  -0.0000001647  0.000051  0.000085  0.000218  0.000006
                 **** Energy Check signals convergence ****
              ***Rediagonalizing the Fockian in SOSCF/NRSCF***

               *****************************************************
               *                     SUCCESS                       *
               *           SCF CONVERGED AFTER  11 CYCLES          *
               *****************************************************

Old exchange energy                            =    -12.720659902 Eh
New exchange energy                            =    -12.720626061 Eh
Exchange energy change after final integration =      0.000033841 Eh
Total energy after final integration           =   -405.388424683 Eh
Final COS-X integration done in                =     0.511 sec

----------------
TOTAL SCF ENERGY
----------------

Total Energy       :         -405.38842468 Eh          -11031.17985 eV

Components:
Nuclear Repulsion  :          326.54041807 Eh            8885.61651 eV
Electronic Energy  :         -731.92884275 Eh          -19916.79636 eV
One Electron Energy:        -1212.40194044 Eh          -32991.13404 eV
Two Electron Energy:          480.47309769 Eh           13074.33767 eV
Max COSX asymmetry :            0.00000427 Eh               0.00012 eV

Virial components:
Potential Energy   :         -807.18841796 Eh          -21964.71352 eV
Kinetic Energy     :          401.79999327 Eh           10933.53367 eV
Virial Ratio       :            2.00893089


DFT components:
N(Alpha)           :       29.000003572925 electrons
N(Beta)            :       29.000003572925 electrons
N(Total)           :       58.000007145851 electrons
E(X)               :      -38.114637991158 Eh       
E(C)               :       -1.956699225611 Eh       
E(XC)              :      -40.071337216769 Eh       
DFET-embed. en.    :        0.000000000000 Eh       

---------------
SCF CONVERGENCE
---------------

  Last Energy change         ...   -6.3304e-08  Tolerance :   1.0000e-06
  Last MAX-Density change    ...    4.4409e-15  Tolerance :   1.0000e-05
  Last RMS-Density change    ...    6.5546e-17  Tolerance :   1.0000e-06
  Last Orbital Gradient      ...    3.6336e-05  Tolerance :   5.0000e-05
  Last Orbital Rotation      ...    6.6120e-05  Tolerance :   5.0000e-05

             **** THE GBW FILE WAS UPDATED (p-fluorophenolate_orca.gbw) ****
             **** DENSITY p-fluorophenolate_orca.scfp WAS UPDATED ****
             **** ENERGY FILE WAS UPDATED (p-fluorophenolate_orca.en.tmp) ****
             **** THE GBW FILE WAS UPDATED (p-fluorophenolate_orca.gbw) ****
             **** DENSITY p-fluorophenolate_orca.scfp WAS UPDATED ****
----------------
ORBITAL ENERGIES
----------------

  NO   OCC          E(Eh)            E(eV) 
   0   2.0000     -24.608642      -669.6352 
   1   2.0000     -18.939839      -515.3792 
   2   2.0000     -10.125613      -275.5319 
   3   2.0000     -10.093150      -274.6486 
   4   2.0000     -10.074442      -274.1395 
   5   2.0000     -10.074389      -274.1381 
   6   2.0000     -10.048550      -273.4349 
   7   2.0000     -10.048501      -273.4336 
   8   2.0000      -1.050697       -28.5909 
   9   2.0000      -0.789564       -21.4851 
  10   2.0000      -0.674595       -18.3567 
  11   2.0000      -0.582755       -15.8576 
  12   2.0000      -0.539244       -14.6736 
  13   2.0000      -0.447469       -12.1762 
  14   2.0000      -0.420931       -11.4541 
  15   2.0000      -0.375992       -10.2312 
  16   2.0000      -0.321608        -8.7514 
  17   2.0000      -0.304554        -8.2873 
  18   2.0000      -0.293878        -7.9968 
  19   2.0000      -0.260939        -7.1005 
  20   2.0000      -0.258566        -7.0359 
  21   2.0000      -0.241466        -6.5706 
  22   2.0000      -0.206647        -5.6232 
  23   2.0000      -0.193812        -5.2739 
  24   2.0000      -0.176306        -4.7975 
  25   2.0000      -0.137480        -3.7410 
  26   2.0000      -0.094056        -2.5594 
  27   2.0000      -0.037389        -1.0174 
  28   2.0000      -0.003579        -0.0974 
  29   0.0000       0.168630         4.5887 
  30   0.0000       0.215658         5.8683 
  31   0.0000       0.225097         6.1252 
  32   0.0000       0.253257         6.8915 
  33   0.0000       0.287524         7.8239 
  34   0.0000       0.307301         8.3621 
  35   0.0000       0.323760         8.8099 
  36   0.0000       0.351942         9.5768 
  37   0.0000       0.417505        11.3609 
  38   0.0000       0.441522        12.0144 
  39   0.0000       0.488726        13.2989 
  40   0.0000       0.492955        13.4140 
  41   0.0000       0.516152        14.0452 
  42   0.0000       0.542200        14.7540 
  43   0.0000       0.568494        15.4695 
  44   0.0000       0.591165        16.0864 
  45   0.0000       0.655343        17.8328 
  46   0.0000       0.656156        17.8549 
  47   0.0000       0.657746        17.8982 
  48   0.0000       0.699092        19.0233 
  49   0.0000       0.705279        19.1916 
  50   0.0000       0.723350        19.6834 
  51   0.0000       0.742864        20.2144 
  52   0.0000       0.760342        20.6900 
  53   0.0000       0.790842        21.5199 
  54   0.0000       0.802408        21.8346 
  55   0.0000       0.804867        21.9016 
  56   0.0000       0.805506        21.9189 
  57   0.0000       0.847773        23.0691 
  58   0.0000       0.873344        23.7649 
  59   0.0000       0.883128        24.0311 
  60   0.0000       0.883881        24.0516 
  61   0.0000       0.909289        24.7430 
  62   0.0000       0.954251        25.9665 
  63   0.0000       0.961013        26.1505 
  64   0.0000       0.964243        26.2384 
  65   0.0000       1.000861        27.2348 
  66   0.0000       1.058701        28.8087 
  67   0.0000       1.067303        29.0428 
  68   0.0000       1.139168        30.9983 
  69   0.0000       1.260155        34.2906 
  70   0.0000       1.271230        34.5919 
  71   0.0000       1.276136        34.7254 
  72   0.0000       1.344612        36.5887 
  73   0.0000       1.418476        38.5987 
  74   0.0000       1.428026        38.8586 
  75   0.0000       1.433897        39.0183 
  76   0.0000       1.436031        39.0764 
  77   0.0000       1.440169        39.1890 
  78   0.0000       1.456952        39.6457 
  79   0.0000       1.487519        40.4774 
  80   0.0000       1.622118        44.1401 
  81   0.0000       1.636633        44.5351 
  82   0.0000       1.646979        44.8166 
  83   0.0000       1.701140        46.2904 
  84   0.0000       1.750957        47.6460 
  85   0.0000       1.837716        50.0068 
  86   0.0000       1.855486        50.4904 
  87   0.0000       1.906552        51.8799 
  88   0.0000       1.913807        52.0773 
  89   0.0000       1.917547        52.1791 
  90   0.0000       1.924024        52.3554 
  91   0.0000       1.925047        52.3832 
  92   0.0000       1.979970        53.8777 
  93   0.0000       2.024573        55.0914 
  94   0.0000       2.035301        55.3833 
  95   0.0000       2.043601        55.6092 
  96   0.0000       2.061372        56.0928 
  97   0.0000       2.153748        58.6065 
  98   0.0000       2.154743        58.6335 
  99   0.0000       2.231115        60.7117 
 100   0.0000       2.237552        60.8869 
 101   0.0000       2.296732        62.4973 
 102   0.0000       2.326618        63.3105 
 103   0.0000       2.327745        63.3412 
 104   0.0000       2.389529        65.0224 
 105   0.0000       2.431321        66.1596 
 106   0.0000       2.436514        66.3009 
 107   0.0000       2.477424        67.4141 
 108   0.0000       2.514624        68.4264 
 109   0.0000       2.588841        70.4460 
 110   0.0000       2.594029        70.5871 
 111   0.0000       2.675827        72.8130 
 112   0.0000       2.749798        74.8258 
 113   0.0000       2.754889        74.9643 
 114   0.0000       2.804066        76.3025 
 115   0.0000       2.894129        78.7532 
 116   0.0000       2.932447        79.7959 
 117   0.0000       2.967847        80.7592 
 118   0.0000       2.992806        81.4384 
 119   0.0000       3.010539        81.9209 
 120   0.0000       3.050002        82.9948 
 121   0.0000       3.094175        84.1968 
 122   0.0000       3.257223        88.6335 
 123   0.0000       3.279438        89.2381 
 124   0.0000       3.319751        90.3350 
 125   0.0000       3.347037        91.0775 
 126   0.0000       3.463030        94.2338 
 127   0.0000       3.568416        97.1015 
 128   0.0000       3.583256        97.5053 
 129   0.0000       3.717285       101.1525 
 130   0.0000       3.840845       104.5147 
 131   0.0000       4.028326       109.6163 

                    ********************************
                    * MULLIKEN POPULATION ANALYSIS *
                    ********************************

-----------------------
MULLIKEN ATOMIC CHARGES
-----------------------
   0 C :   -0.167872
   1 C :   -0.072512
   2 C :    0.194757
   3 C :   -0.072954
   4 C :   -0.168038
   5 C :    0.188387
   6 O :   -0.449756
   7 F :   -0.294629
   8 H :   -0.044040
   9 H :   -0.034721
  10 H :   -0.034738
  11 H :   -0.043886
Sum of atomic charges:   -1.0000000

--------------------------------
MULLIKEN REDUCED ORBITAL CHARGES
--------------------------------
  0 C s       :     3.244702  s :     3.244702
      pz      :     1.118846  p :     2.893394
      px      :     0.811374
      py      :     0.963174
      dz2     :     0.002619  d :     0.029776
      dxz     :     0.004411
      dyz     :     0.002934
      dx2y2   :     0.008880
      dxy     :     0.010932
  1 C s       :     3.198302  s :     3.198302
      pz      :     1.066004  p :     2.839015
      px      :     0.947198
      py      :     0.825812
      dz2     :     0.002645  d :     0.035195
      dxz     :     0.009774
      dyz     :     0.002503
      dx2y2   :     0.009183
      dxy     :     0.011088
  2 C s       :     2.991699  s :     2.991699
      pz      :     1.148135  p :     2.740903
      px      :     0.640277
      py      :     0.952491
      dz2     :     0.005628  d :     0.072642
      dxz     :     0.012211
      dyz     :     0.008071
      dx2y2   :     0.024280
      dxy     :     0.022451
  3 C s       :     3.198398  s :     3.198398
      pz      :     1.065983  p :     2.839356
      px      :     0.866099
      py      :     0.907274
      dz2     :     0.002646  d :     0.035200
      dxz     :     0.005562
      dyz     :     0.006718
      dx2y2   :     0.009575
      dxy     :     0.010700
  4 C s       :     3.244642  s :     3.244642
      pz      :     1.118916  p :     2.893623
      px      :     0.894751
      py      :     0.879957
      dz2     :     0.002619  d :     0.029772
      dxz     :     0.005766
      dyz     :     0.001578
      dx2y2   :     0.010545
      dxy     :     0.009264
  5 C s       :     2.976025  s :     2.976025
      pz      :     0.889191  p :     2.741355
      px      :     0.895377
      py      :     0.956787
      dz2     :     0.004847  d :     0.094233
      dxz     :     0.022560
      dyz     :     0.006019
      dx2y2   :     0.027184
      dxy     :     0.033622
  6 O s       :     3.738848  s :     3.738848
      pz      :     1.547690  p :     4.696301
      px      :     1.379026
      py      :     1.769585
      dz2     :     0.001743  d :     0.014607
      dxz     :     0.003888
      dyz     :     0.000413
      dx2y2   :     0.004650
      dxy     :     0.003913
  7 F s       :     3.906988  s :     3.906988
      pz      :     1.929295  p :     5.380835
      px      :     1.558816
      py      :     1.892723
      dz2     :     0.000924  d :     0.006806
      dxz     :     0.001600
      dyz     :     0.000177
      dx2y2   :     0.002275
      dxy     :     0.001831
  8 H s       :     1.021438  s :     1.021438
      pz      :     0.005595  p :     0.022602
      px      :     0.009486
      py      :     0.007521
  9 H s       :     1.012052  s :     1.012052
      pz      :     0.005269  p :     0.022670
      px      :     0.003878
      py      :     0.013522
 10 H s       :     1.012068  s :     1.012068
      pz      :     0.005270  p :     0.022670
      px      :     0.009453
      py      :     0.007947
 11 H s       :     1.021286  s :     1.021286
      pz      :     0.005594  p :     0.022599
      px      :     0.003841
      py      :     0.013164


                     *******************************
                     * LOEWDIN POPULATION ANALYSIS *
                     *******************************

----------------------
LOEWDIN ATOMIC CHARGES
----------------------
   0 C :   -0.134773
   1 C :   -0.098016
   2 C :   -0.009191
   3 C :   -0.098022
   4 C :   -0.134820
   5 C :   -0.006102
   6 O :   -0.400493
   7 F :   -0.153563
   8 H :    0.004316
   9 H :    0.013168
  10 H :    0.013141
  11 H :    0.004355

-------------------------------
LOEWDIN REDUCED ORBITAL CHARGES
-------------------------------
  0 C s       :     2.893105  s :     2.893105
      pz      :     1.085001  p :     3.161808
      px      :     1.029326
      py      :     1.047482
      dz2     :     0.006700  d :     0.079860
      dxz     :     0.008841
      dyz     :     0.005834
      dx2y2   :     0.026441
      dxy     :     0.032042
  1 C s       :     2.873575  s :     2.873575
      pz      :     1.035405  p :     3.132781
      px      :     1.072633
      py      :     1.024744
      dz2     :     0.006360  d :     0.091659
      dxz     :     0.020884
      dyz     :     0.004344
      dx2y2   :     0.027453
      dxy     :     0.032617
  2 C s       :     2.855751  s :     2.855751
      pz      :     1.134337  p :     2.983374
      px      :     0.782480
      py      :     1.066558
      dz2     :     0.012165  d :     0.170066
      dxz     :     0.024277
      dyz     :     0.016610
      dx2y2   :     0.059524
      dxy     :     0.057490
  3 C s       :     2.873561  s :     2.873561
      pz      :     1.035401  p :     3.132801
      px      :     1.057637
      py      :     1.039763
      dz2     :     0.006361  d :     0.091660
      dxz     :     0.011498
      dyz     :     0.013731
      dx2y2   :     0.028974
      dxy     :     0.031096
  4 C s       :     2.893121  s :     2.893121
      pz      :     1.085046  p :     3.161837
      px      :     1.047549
      py      :     1.029243
      dz2     :     0.006700  d :     0.079861
      dxz     :     0.012001
      dyz     :     0.002674
      dx2y2   :     0.030944
      dxy     :     0.027542
  5 C s       :     2.856078  s :     2.856078
      pz      :     0.892460  p :     2.932199
      px      :     1.001028
      py      :     1.038711
      dz2     :     0.011438  d :     0.217825
      dxz     :     0.043398
      dyz     :     0.011883
      dx2y2   :     0.067502
      dxy     :     0.083603
  6 O s       :     3.571930  s :     3.571930
      pz      :     1.552987  p :     4.803316
      px      :     1.471931
      py      :     1.778397
      dz2     :     0.003627  d :     0.025248
      dxz     :     0.005021
      dyz     :     0.000532
      dx2y2   :     0.008998
      dxy     :     0.007069
  7 F s       :     3.743481  s :     3.743481
      pz      :     1.928277  p :     5.399495
      px      :     1.579322
      py      :     1.891897
      dz2     :     0.001450  d :     0.010587
      dxz     :     0.002530
      dyz     :     0.000275
      dx2y2   :     0.003534
      dxy     :     0.002798
  8 H s       :     0.927290  s :     0.927290
      pz      :     0.017805  p :     0.068395
      px      :     0.026594
      py      :     0.023996
  9 H s       :     0.920599  s :     0.920599
      pz      :     0.015582  p :     0.066232
      px      :     0.012557
      py      :     0.038093
 10 H s       :     0.920631  s :     0.920631
      pz      :     0.015582  p :     0.066228
      px      :     0.027288
      py      :     0.023358
 11 H s       :     0.927245  s :     0.927245
      pz      :     0.017807  p :     0.068400
      px      :     0.011700
      py      :     0.038893


                      *****************************
                      * MAYER POPULATION ANALYSIS *
                      *****************************

  NA   - Mulliken gross atomic population
  ZA   - Total nuclear charge
  QA   - Mulliken gross atomic charge
  VA   - Mayer's total valence
  BVA  - Mayer's bonded valence
  FA   - Mayer's free valence

  ATOM       NA         ZA         QA         VA         BVA        FA
  0 C      6.1679     6.0000    -0.1679     3.7134     3.7134    -0.0000
  1 C      6.0725     6.0000    -0.0725     3.7569     3.7569    -0.0000
  2 C      5.8052     6.0000     0.1948     3.8003     3.8003    -0.0000
  3 C      6.0730     6.0000    -0.0730     3.7571     3.7571    -0.0000
  4 C      6.1680     6.0000    -0.1680     3.7136     3.7136     0.0000
  5 C      5.8116     6.0000     0.1884     4.1826     4.1826    -0.0000
  6 O      8.4498     8.0000    -0.4498     2.0679     2.0679     0.0000
  7 F      9.2946     9.0000    -0.2946     1.0324     1.0324    -0.0000
  8 H      1.0440     1.0000    -0.0440     1.0009     1.0009    -0.0000
  9 H      1.0347     1.0000    -0.0347     0.9852     0.9852    -0.0000
 10 H      1.0347     1.0000    -0.0347     0.9852     0.9852    -0.0000
 11 H      1.0439     1.0000    -0.0439     1.0008     1.0008     0.0000

  Mayer bond orders larger than 0.100000
B(  0-C ,  1-C ) :   1.3782 B(  0-C ,  5-C ) :   1.1533 B(  0-C ,  8-H ) :   0.9670 
B(  1-C ,  2-C ) :   1.3457 B(  1-C ,  9-H ) :   0.9722 B(  2-C ,  3-C ) :   1.3458 
B(  2-C ,  7-F ) :   0.9560 B(  3-C ,  4-C ) :   1.3783 B(  3-C , 10-H ) :   0.9722 
B(  4-C ,  5-C ) :   1.1534 B(  4-C , 11-H ) :   0.9670 B(  5-C ,  6-O ) :   1.8246 



------------------
HIRSHFELD ANALYSIS
------------------

Total integrated alpha density =     29.000003573
Total integrated beta density  =     29.000003573

  ATOM     CHARGE      SPIN    
   0 C   -0.114548    0.000000
   1 C   -0.098836    0.000000
   2 C    0.014934    0.000000
   3 C   -0.098817    0.000000
   4 C   -0.114569    0.000000
   5 C    0.049204    0.000000
   6 O   -0.470565    0.000000
   7 F   -0.183882    0.000000
   8 H   -0.001422    0.000000
   9 H    0.009957    0.000000
  10 H    0.009921    0.000000
  11 H   -0.001384    0.000000

  TOTAL  -1.000007    0.000000

-------
TIMINGS
-------

Total SCF time: 0 days 0 hours 0 min 4 sec 

Total time                  ....       4.364 sec
Sum of individual times     ....       4.285 sec  ( 98.2%)

Fock matrix formation       ....       3.611 sec  ( 82.8%)
  Split-RI-J                ....       0.428 sec  ( 11.8% of F)
  Chain of spheres X        ....       2.552 sec  ( 70.7% of F)
  XC integration            ....       0.611 sec  ( 16.9% of F)
    Basis function eval.    ....       0.216 sec  ( 35.4% of XC)
    Density eval.           ....       0.134 sec  ( 21.9% of XC)
    XC-Functional eval.     ....       0.060 sec  (  9.8% of XC)
    XC-Potential eval.      ....       0.117 sec  ( 19.1% of XC)
Diagonalization             ....       0.024 sec  (  0.5%)
Density matrix formation    ....       0.006 sec  (  0.1%)
Population analysis         ....       0.071 sec  (  1.6%)
Initial guess               ....       0.032 sec  (  0.7%)
Orbital Transformation      ....       0.000 sec  (  0.0%)
Orbital Orthonormalization  ....       0.000 sec  (  0.0%)
DIIS solution               ....       0.019 sec  (  0.4%)
SOSCF solution              ....       0.013 sec  (  0.3%)
Grid generation             ....       0.510 sec  ( 11.7%)

Maximum memory used throughout the entire SCF-calculation: 49.5 MB


-------------------------------------------------------------------------------
                          DFT DISPERSION CORRECTION                            
                                                                               
                                 DFTD4 V2.5                                    
-------------------------------------------------------------------------------
The PBE0 functional is recognized
Active option DFTDOPT                   ...         5   

Starting D4
-------------------------   ----------------
Dispersion correction           -0.010834092
-------------------------   ----------------


-------------------------   --------------------
FINAL SINGLE POINT ENERGY      -405.399258775121
-------------------------   --------------------


                            ***************************************
                            *     ORCA property calculations      *
                            ***************************************

                                    ---------------------
                                    Active property flags
                                    ---------------------
   (+) Dipole Moment


------------------------------------------------------------------------------
                       ORCA ELECTRIC PROPERTIES CALCULATION
------------------------------------------------------------------------------

Dipole Moment Calculation                       ... on
Quadrupole Moment Calculation                   ... off
Polarizability Calculation                      ... off
GBWName                                         ... p-fluorophenolate_orca.gbw
Electron density                                ... p-fluorophenolate_orca.scfp
The origin for moment calculation is the CENTER OF MASS  = (-0.124969,  0.040324 -0.000105)

-------------
DIPOLE MOMENT
-------------
                                X             Y             Z
Electronic contribution:     -4.36892       1.40913      -0.00468
Nuclear contribution   :      2.62861      -0.84791       0.00281
                        -----------------------------------------
Total Dipole Moment    :     -1.74031       0.56121      -0.00187
                        -----------------------------------------
Magnitude (a.u.)       :      1.82856
Magnitude (Debye)      :      4.64783



--------------------
Rotational spectrum 
--------------------
 
Rotational constants in cm-1:     0.186805     0.047990     0.038181 
Rotational constants in MHz :  5600.276126  1438.711643  1144.650727 

 Dipole components along the rotational axes: 
x,y,z [a.u.] :    -1.828561    -0.000052    -0.000037 
x,y,z [Debye]:    -4.647833    -0.000132    -0.000095 

 


           ************************************************************
           *        Program running with 8 parallel MPI-processes     *
           *              working on a common directory               *
           ************************************************************

-------------------------------------------------------------------------------
                               ORCA SCF HESSIAN
-------------------------------------------------------------------------------

Hessian of the Kohn-Sham DFT energy:
Kohn-Sham wavefunction type                      ... RKS
Hartree-Fock exchange scaling                    ...    0.250
Number of operators                              ...    1
Number of atoms                                  ...   12
Basis set dimensions                             ...  132
Integral neglect threshold                       ... 1.0e-10
Integral primitive cutoff                        ... 1.0e-11

Setting up DFT Hessian calculations              ... 

HESS GRID
---------

General Integration Accuracy     IntAcc      ... 4.629
Radial Grid Type                 RadialGrid  ... OptM3 with GC (2021)
Angular Grid (max. ang.)         AngularGrid ... 5 (Lebedev-434)
Angular grid pruning method      GridPruning ... 4 (adaptive)
Weight generation scheme         WeightScheme... Becke
Basis function cutoff            BFCut       ... 1.0000e-10
Integration weight cutoff        WCut        ... 1.0000e-14
Angular grids for H and He will be reduced by one unit
Partially contracted basis set               ... off
Rotationally invariant grid construction     ... off

Total number of grid points                  ...    95543
Total number of batches                      ...     1500
Average number of points per batch           ...       63
Average number of grid points per atom       ...     7962

Building densities                               ... done   (      0.0 sec)
Calculating rho(r) on the grid                   ... done   (      0.1 sec)
Building xc-kernel on the grid                   ... done   (      0.0 sec)
                                                     done   (      0.8 sec)

Nuclear repulsion Hessian  (SHARK)               ... done   (      0.0 sec)

----------------------------------------------
Forming right-hand sides of CP-SCF equations     ...
----------------------------------------------
One electron integral derivatives  (SHARK)       ... done   (      0.0 sec)
Transforming the overlap derivative matrices     ... done   (      0.0 sec)
Making the Q(x) pseudodensities                  ... done   (      0.0 sec)
Adding the E*S(x)*S(y) terms to the Hessian      ... done   (      0.0 sec)
Calculating energy weighted overlap derivatives  ... done   (      0.0 sec)
Two electron integral derivatives (SHARK-RI)     ... done   (      1.2 sec)
Exchange-correlation integral derivatives        ... done   (      4.3 sec)
tr(F(y)Q(x)) contribution to the Hessian         ... done   (      0.0 sec)
Response fock operator R(S(x)) (SHARK-RIJCOSX)   ... done   (      1.1 sec)
XC Response fock operator R(S(x))                ... done   (      1.3 sec)
tr(F(y)S(x)) contribution to the Hessian         ... done   (      0.0 sec)
Transforming and finalizing RHSs                 ... done   (      0.0 sec)

----------------------------------------------
Solving the CP-SCF equations (RIJCOSX)           ...
----------------------------------------------
     CP-SCF ITERATION   0:   5.0879e-01 (   0.6 sec   0/ 36 done)
     CP-SCF ITERATION   1:   5.1714e-02 (   0.6 sec   0/ 36 done)
     CP-SCF ITERATION   2:   1.9844e-02 (   0.6 sec   4/ 36 done)
     CP-SCF ITERATION   3:   7.0890e-03 (   0.6 sec  17/ 36 done)
     CP-SCF ITERATION   4:   3.2811e-03 (   0.4 sec  23/ 36 done)
     CP-SCF ITERATION   5:   6.8787e-04 (   0.4 sec  36/ 36 done)
                    *** THE CP-SCF HAS CONVERGED ***

                                                 ... done   (      3.4 sec)
Forming perturbed density Hessian contributions  ... done   (      0.0 sec)
2nd integral derivative contribs (SHARK-RI)      ... done   (      5.5 sec)
Exchange-correlation Hessian                     ... done   (      3.1 sec)
Dispersion correction in the Hessian             ... Starting D4
Starting D4
Starting D4
Starting D4
Starting D4
Starting D4


------------------- 
Dispersion Gradient 
------------------- 
   1  :    0.000161329    0.000158150   -0.000001187
   2  :   -0.000064943    0.000238525   -0.000001472
   3  :   -0.000195565    0.000063034   -0.000000204
   4  :   -0.000192164   -0.000155740    0.000001203
   5  :    0.000038237   -0.000222369    0.000001394
   6  :    0.000179364   -0.000057828    0.000000184
   7  :    0.000324849   -0.000104759    0.000000346
   8  :   -0.000245810    0.000079311   -0.000000258
   9  :    0.000066292    0.000057768   -0.000000441
  10  :   -0.000024781    0.000084738   -0.000000521
  11  :   -0.000069565   -0.000054267    0.000000422
  12  :    0.000019995   -0.000085625    0.000000532

  |G| =    0.002953173

Starting D4
Starting D4
Starting D4
Starting D4
Starting D4
Starting D4
Starting D4
Starting D4
Starting D4
Starting D4


------------------- 
Dispersion Gradient 
------------------- 
   1  :    0.000160602    0.000158055   -0.000001187
   2  :   -0.000064895    0.000238533   -0.000001472
   3  :   -0.000195428    0.000063053   -0.000000204
   4  :   -0.000191924   -0.000155606    0.000001202
   5  :    0.000038296   -0.000222338    0.000001394
   6  :    0.000179363   -0.000057859    0.000000184
   7  :    0.000325021   -0.000104802    0.000000346
   8  :   -0.000245939    0.000079303   -0.000000258
   9  :    0.000066264    0.000057811   -0.000000441
  10  :   -0.000024727    0.000084690   -0.000000521
  11  :   -0.000069598   -0.000054324    0.000000423
  12  :    0.000020046   -0.000085628    0.000000532

  |G| =    0.002952271

Starting D4
Starting D4
Starting D4
Starting D4
Starting D4
Starting D4
Starting D4
Starting D4


------------------- 
Dispersion Gradient 
------------------- 
   1  :    0.000160966    0.000158102   -0.000001213
   2  :   -0.000064919    0.000238529   -0.000001474
   3  :   -0.000195496    0.000063043    0.000000013
   4  :   -0.000192044   -0.000155673    0.000001200
   5  :    0.000038267   -0.000222353    0.000001368
   6  :    0.000179363   -0.000057843    0.000000138
   7  :    0.000324935   -0.000104780    0.000000306
   8  :   -0.000245875    0.000079307   -0.000000263
   9  :    0.000066279    0.000057790   -0.000000464
  10  :   -0.000024754    0.000084715   -0.000000530
  11  :   -0.000069582   -0.000054295    0.000000413
  12  :    0.000020021   -0.000085627    0.000000509

  |G| =    0.002952449

Starting D4
Starting D4
Starting D4
Starting D4
Starting D4
Starting D4
Starting D4
Starting D4


------------------- 
Dispersion Gradient 
------------------- 
   1  :    0.000160965    0.000158102   -0.000001161
   2  :   -0.000064919    0.000238529   -0.000001470
   3  :   -0.000195496    0.000063044   -0.000000421
   4  :   -0.000192044   -0.000155673    0.000001204
   5  :    0.000038267   -0.000222354    0.000001420
   6  :    0.000179364   -0.000057843    0.000000229
   7  :    0.000324935   -0.000104780    0.000000386
   8  :   -0.000245875    0.000079307   -0.000000253
   9  :    0.000066279    0.000057790   -0.000000417
  10  :   -0.000024754    0.000084714   -0.000000511
  11  :   -0.000069582   -0.000054296    0.000000432
  12  :    0.000020021   -0.000085627    0.000000556

  |G| =    0.002953020

Starting D4
Starting D4
Starting D4
Starting D4
Starting D4
Starting D4
Starting D4
Starting D4


------------------- 
Dispersion Gradient 
------------------- 
   1  :    0.000160974    0.000158096   -0.000001187
   2  :   -0.000064861    0.000238444   -0.000001472
   3  :   -0.000195460    0.000062982   -0.000000204
   4  :   -0.000192063   -0.000155704    0.000001202
   5  :    0.000038260   -0.000222348    0.000001394
   6  :    0.000179366   -0.000057550    0.000000183
   7  :    0.000324922   -0.000104777    0.000000346
   8  :   -0.000245912    0.000079298   -0.000000258
   9  :    0.000066273    0.000057755   -0.000000441
  10  :   -0.000024772    0.000084705   -0.000000521
  11  :   -0.000069574   -0.000054319    0.000000422
  12  :    0.000020015   -0.000085657    0.000000532

  |G| =    0.002952250

Starting D4
Starting D4
Starting D4
Starting D4
Starting D4
Starting D4
Starting D4
Starting D4


------------------- 
Dispersion Gradient 
------------------- 
   1  :    0.000160957    0.000158109   -0.000001187
   2  :   -0.000064977    0.000238614   -0.000001473
   3  :   -0.000195532    0.000063105   -0.000000204
   4  :   -0.000192025   -0.000155641    0.000001202
   5  :    0.000038274   -0.000222359    0.000001394
   6  :    0.000179361   -0.000058137    0.000000184
   7  :    0.000324948   -0.000104783    0.000000346
   8  :   -0.000245838    0.000079315   -0.000000258
   9  :    0.000066285    0.000057826   -0.000000441
  10  :   -0.000024736    0.000084724   -0.000000521
  11  :   -0.000069589   -0.000054272    0.000000422
  12  :    0.000020027   -0.000085597    0.000000532

  |G| =    0.002953195

Starting D4
Starting D4
Starting D4
Starting D4
Starting D4
Starting D4
Starting D4
Starting D4


------------------- 
Dispersion Gradient 
------------------- 
   1  :    0.000160979    0.000158065   -0.000001187
   2  :   -0.000064980    0.000238504   -0.000001472
   3  :   -0.000195501    0.000063050   -0.000000204
   4  :   -0.000192028   -0.000155642    0.000001202
   5  :    0.000038245   -0.000222346    0.000001394
   6  :    0.000179349   -0.000057849    0.000000184
   7  :    0.000324921   -0.000104751    0.000000346
   8  :   -0.000245850    0.000079314   -0.000000258
   9  :    0.000066350    0.000057758   -0.000000440
  10  :   -0.000024770    0.000084723   -0.000000521
  11  :   -0.000069577   -0.000054290    0.000000422
  12  :    0.000020019   -0.000085621    0.000000532

  |G| =    0.002952643

Starting D4
Starting D4
Starting D4
Starting D4
Starting D4
Starting D4
Starting D4
Starting D4


------------------- 
Dispersion Gradient 
------------------- 
   1  :    0.000160953    0.000158141   -0.000001187
   2  :   -0.000064859    0.000238554   -0.000001473
   3  :   -0.000195490    0.000063037   -0.000000204
   4  :   -0.000192060   -0.000155703    0.000001202
   5  :    0.000038288   -0.000222360    0.000001394
   6  :    0.000179378   -0.000057837    0.000000184
   7  :    0.000324949   -0.000104809    0.000000346
   8  :   -0.000245899    0.000079300   -0.000000258
   9  :    0.000066206    0.000057820   -0.000000441
  10  :   -0.000024738    0.000084706   -0.000000521
  11  :   -0.000069587   -0.000054301    0.000000422
  12  :    0.000020023   -0.000085633    0.000000532

  |G| =    0.002952797

Starting D4
Starting D4
Starting D4
Starting D4


------------------- 
Dispersion Gradient 
------------------- 
   1  :    0.000160965    0.000158102   -0.000001203
   2  :   -0.000064919    0.000238529   -0.000001495
   3  :   -0.000195496    0.000063044   -0.000000214
   4  :   -0.000192044   -0.000155672    0.000001240
   5  :    0.000038267   -0.000222353    0.000001394
   6  :    0.000179363   -0.000057843    0.000000160
   7  :    0.000324935   -0.000104780    0.000000343
   8  :   -0.000245875    0.000079307   -0.000000258
   9  :    0.000066279    0.000057790   -0.000000442
  10  :   -0.000024754    0.000084714   -0.000000524
  11  :   -0.000069581   -0.000054296    0.000000475
  12  :    0.000020021   -0.000085627    0.000000521

  |G| =    0.002952828

Starting D4
Starting D4
Starting D4
Starting D4


------------------- 
Dispersion Gradient 
------------------- 
   1  :    0.000160966    0.000158103   -0.000001171
   2  :   -0.000064919    0.000238529   -0.000001450
   3  :   -0.000195496    0.000063044   -0.000000195
   4  :   -0.000192044   -0.000155673    0.000001164
   5  :    0.000038267   -0.000222353    0.000001395
   6  :    0.000179363   -0.000057843    0.000000207
   7  :    0.000324935   -0.000104780    0.000000348
   8  :   -0.000245875    0.000079306   -0.000000259
   9  :    0.000066279    0.000057790   -0.000000439
  10  :   -0.000024754    0.000084715   -0.000000517
  11  :   -0.000069582   -0.000054295    0.000000370
  12  :    0.000020021   -0.000085627    0.000000544

  |G| =    0.002952615

done   (      0.3 sec)
Dipole derivatives                               ... done   (      0.2 sec)

Total SCF Hessian time: 0 days 0 hours 0 min 21 sec 

Writing the Hessian file to the disk             ... done


Maximum memory used throughout the entire SCFHESS-calculation: 91.2 MB

-----------------------
VIBRATIONAL FREQUENCIES
-----------------------

Scaling factor for frequencies =  1.000000000  (already applied!)

   0:         0.00 cm**-1
   1:         0.00 cm**-1
   2:         0.00 cm**-1
   3:         0.00 cm**-1
   4:         0.00 cm**-1
   5:         0.00 cm**-1
   6:       173.27 cm**-1
   7:       358.26 cm**-1
   8:       362.43 cm**-1
   9:       455.00 cm**-1
  10:       461.39 cm**-1
  11:       479.36 cm**-1
  12:       534.91 cm**-1
  13:       633.96 cm**-1
  14:       720.60 cm**-1
  15:       744.08 cm**-1
  16:       819.10 cm**-1
  17:       820.38 cm**-1
  18:       872.64 cm**-1
  19:       953.31 cm**-1
  20:       965.78 cm**-1
  21:       981.05 cm**-1
  22:      1073.56 cm**-1
  23:      1127.30 cm**-1
  24:      1202.60 cm**-1
  25:      1218.82 cm**-1
  26:      1280.53 cm**-1
  27:      1408.05 cm**-1
  28:      1445.65 cm**-1
  29:      1557.09 cm**-1
  30:      1579.33 cm**-1
  31:      1659.57 cm**-1
  32:      3082.82 cm**-1
  33:      3083.64 cm**-1
  34:      3103.27 cm**-1
  35:      3107.37 cm**-1


------------
NORMAL MODES
------------

These modes are the Cartesian displacements weighted by the diagonal matrix
M(i,i)=1/sqrt(m[i]) where m[i] is the mass of the displaced atom
Thus, these vectors are normalized but *not* orthogonal

                  0          1          2          3          4          5    
      0       0.000000   0.000000   0.000000   0.000000   0.000000   0.000000
      1       0.000000   0.000000   0.000000   0.000000   0.000000   0.000000
      2       0.000000   0.000000   0.000000   0.000000   0.000000   0.000000
      3       0.000000   0.000000   0.000000   0.000000   0.000000   0.000000
      4       0.000000   0.000000   0.000000   0.000000   0.000000   0.000000
      5       0.000000   0.000000   0.000000   0.000000   0.000000   0.000000
      6       0.000000   0.000000   0.000000   0.000000   0.000000   0.000000
      7       0.000000   0.000000   0.000000   0.000000   0.000000   0.000000
      8       0.000000   0.000000   0.000000   0.000000   0.000000   0.000000
      9       0.000000   0.000000   0.000000   0.000000   0.000000   0.000000
     10       0.000000   0.000000   0.000000   0.000000   0.000000   0.000000
     11       0.000000   0.000000   0.000000   0.000000   0.000000   0.000000
     12       0.000000   0.000000   0.000000   0.000000   0.000000   0.000000
     13       0.000000   0.000000   0.000000   0.000000   0.000000   0.000000
     14       0.000000   0.000000   0.000000   0.000000   0.000000   0.000000
     15       0.000000   0.000000   0.000000   0.000000   0.000000   0.000000
     16       0.000000   0.000000   0.000000   0.000000   0.000000   0.000000
     17       0.000000   0.000000   0.000000   0.000000   0.000000   0.000000
     18       0.000000   0.000000   0.000000   0.000000   0.000000   0.000000
     19       0.000000   0.000000   0.000000   0.000000   0.000000   0.000000
     20       0.000000   0.000000   0.000000   0.000000   0.000000   0.000000
     21       0.000000   0.000000   0.000000   0.000000   0.000000   0.000000
     22       0.000000   0.000000   0.000000   0.000000   0.000000   0.000000
     23       0.000000   0.000000   0.000000   0.000000   0.000000   0.000000
     24       0.000000   0.000000   0.000000   0.000000   0.000000   0.000000
     25       0.000000   0.000000   0.000000   0.000000   0.000000   0.000000
     26       0.000000   0.000000   0.000000   0.000000   0.000000   0.000000
     27       0.000000   0.000000   0.000000   0.000000   0.000000   0.000000
     28       0.000000   0.000000   0.000000   0.000000   0.000000   0.000000
     29       0.000000   0.000000   0.000000   0.000000   0.000000   0.000000
     30       0.000000   0.000000   0.000000   0.000000   0.000000   0.000000
     31       0.000000   0.000000   0.000000   0.000000   0.000000   0.000000
     32       0.000000   0.000000   0.000000   0.000000   0.000000   0.000000
     33       0.000000   0.000000   0.000000   0.000000   0.000000   0.000000
     34       0.000000   0.000000   0.000000   0.000000   0.000000   0.000000
     35       0.000000   0.000000   0.000000   0.000000   0.000000   0.000000
                  6          7          8          9         10         11    
      0       0.000289  -0.000273   0.122231   0.015109   0.000303  -0.037678
      1       0.001888  -0.001746   0.129714  -0.192449   0.001693  -0.213271
      2       0.293718  -0.278871  -0.000876   0.001084   0.243202   0.001692
      3       0.000241   0.000244   0.089391  -0.060686  -0.000302   0.098230
      4       0.001495   0.001503   0.267906  -0.143132  -0.001620   0.116859
      5       0.233723   0.222489  -0.001878   0.001133  -0.229620  -0.001101
      6       0.000080   0.000529   0.075094  -0.330283  -0.000088   0.046925
      7       0.000452   0.003016   0.232705   0.106129  -0.000082   0.146556
      8       0.069407   0.462128  -0.001708  -0.000245  -0.000026  -0.000986
      9       0.000227   0.000249   0.083889   0.034354   0.000238  -0.011319
     10       0.001493   0.001477   0.269747   0.150925   0.001377   0.152567
     11       0.233641   0.222298  -0.001865  -0.001079   0.229814  -0.000731
     12       0.000295  -0.000306  -0.023531   0.125083  -0.000167  -0.093789
     13       0.001888  -0.001782   0.176670   0.148371  -0.001410  -0.194864
     14       0.293772  -0.278766  -0.001036  -0.001024  -0.243396   0.001082
     15      -0.000022  -0.000182   0.015430   0.373748   0.000089  -0.063238
     16      -0.000010  -0.000959   0.047759  -0.119967   0.000184  -0.197202
     17      -0.004466  -0.150781  -0.000290   0.000384  -0.000089   0.001379
     18      -0.000455   0.000096  -0.114457   0.418665  -0.000023   0.090138
     19      -0.002948   0.001044  -0.355028  -0.135785  -0.000226   0.278224
     20      -0.458137   0.170435   0.002351   0.000460   0.000043  -0.001899
     21      -0.000380  -0.000223  -0.148906  -0.460012  -0.000031  -0.034417
     22      -0.002471  -0.001682  -0.462068   0.148579   0.000098  -0.105208
     23      -0.384314  -0.244068   0.003186  -0.000537  -0.000049   0.000713
     24       0.000350  -0.000388   0.150932  -0.166525   0.000259   0.152414
     25       0.002228  -0.002679   0.102956   0.022899   0.002819  -0.427248
     26       0.348989  -0.420151  -0.000701  -0.000335   0.389278   0.002816
     27       0.000231   0.000211   0.214806   0.233391  -0.000720   0.335041
     28       0.001510   0.001257   0.300244  -0.068647  -0.003302   0.172356
     29       0.237030   0.184834  -0.002166   0.000350  -0.486209  -0.001992
     30       0.000226   0.000182   0.000626   0.230163   0.000663  -0.170700
     31       0.001515   0.001271   0.369687  -0.082143   0.002838   0.335548
     32       0.236900   0.184408  -0.002366   0.000113   0.487013  -0.001529
     33       0.000362  -0.000425  -0.062713  -0.146772  -0.000131  -0.373463
     34       0.002241  -0.002685   0.171634   0.080020  -0.002314  -0.257484
     35       0.348782  -0.419461  -0.000940  -0.000319  -0.388472   0.001516
                 12         13         14         15         16         17    
      0       0.000069   0.339170   0.000039   0.236834  -0.091648  -0.000896
      1       0.000320   0.032420   0.000344   0.074930  -0.308135  -0.003056
      2       0.043951  -0.000595   0.062877  -0.000809   0.004551  -0.068098
      3      -0.000136   0.249163  -0.000120   0.219654   0.042051   0.000272
      4      -0.000695  -0.261383  -0.000876  -0.013073  -0.247515  -0.002584
      5      -0.111306   0.001390  -0.141533  -0.000058   0.004572  -0.079375
      6       0.000219  -0.018897   0.000221   0.008122  -0.052821  -0.000419
      7       0.001391  -0.058651   0.001423  -0.002650   0.017038   0.000171
      8       0.225914   0.000509   0.214281  -0.000086  -0.000081  -0.000193
      9      -0.000101  -0.355158  -0.000033   0.185577   0.178673   0.001580
     10      -0.000706  -0.066527  -0.000914  -0.117643   0.176332   0.001981
     11      -0.111063   0.000721  -0.141444   0.000643  -0.004306   0.079871
     12       0.000029  -0.256531   0.000152   0.148215   0.105689   0.000950
     13       0.000318   0.224648   0.000322  -0.198798   0.303695   0.002976
     14       0.043667  -0.001127   0.063331   0.001115  -0.004566   0.067503
     15       0.000175   0.034632  -0.000253  -0.139954  -0.120468  -0.000990
     16       0.001174   0.107054  -0.001366   0.045131   0.038875   0.000375
     17       0.187716  -0.000826  -0.216664   0.000020  -0.000069   0.000463
     18      -0.000077   0.044363  -0.000025  -0.223838  -0.183173  -0.001521
     19      -0.000509   0.137266   0.000306   0.072174   0.059037   0.000480
     20      -0.076505  -0.000906   0.046483  -0.000282  -0.000209  -0.000119
     21       0.000007  -0.031957  -0.000072  -0.302897   0.069484   0.000583
     22      -0.000090  -0.099736  -0.000010   0.097562  -0.022434  -0.000188
     23      -0.013976   0.000674  -0.006356  -0.000322   0.000074   0.000016
     24      -0.000380   0.308901   0.000683   0.424702  -0.067215  -0.000079
     25      -0.002349   0.062841   0.004073  -0.142230  -0.356122   0.000326
     26      -0.378140  -0.000192   0.655867   0.000298  -0.017043   0.524767
     27      -0.000622   0.248697   0.000048   0.316440   0.371679   0.003614
     28      -0.003478  -0.260312  -0.000038   0.016686  -0.181123   0.001454
     29      -0.544653   0.001397  -0.014835  -0.000441  -0.016621   0.462058
     30      -0.000538  -0.354333   0.000110   0.247279   0.407529   0.002921
     31      -0.003485  -0.065726  -0.000117  -0.198972  -0.070300  -0.003569
     32      -0.544640   0.000619  -0.015502   0.000901   0.017409  -0.463616
     33      -0.000400  -0.214282   0.000835   0.427244   0.153216   0.000767
     34      -0.002397   0.231638   0.004140  -0.132450   0.328181  -0.000661
     35      -0.377895  -0.000997   0.652897  -0.000039   0.016967  -0.523673
                 18         19         20         21         22         23    
      0      -0.000189   0.000062  -0.000063  -0.058887   0.062900   0.027427
      1      -0.000854   0.000446  -0.000458  -0.136598   0.032757  -0.027423
      2      -0.127776   0.064137  -0.074475   0.000933  -0.000306   0.000151
      3      -0.000052  -0.000081   0.000068   0.019262  -0.032177  -0.037234
      4      -0.000389  -0.000641   0.000462   0.233031   0.041984  -0.023163
      5      -0.055449  -0.083938   0.079075  -0.001499  -0.000260   0.000185
      6       0.000091   0.000053  -0.000030   0.045786  -0.012778   0.031955
      7       0.000463   0.000285   0.000060  -0.014656  -0.039486  -0.010375
      8       0.056661   0.036049  -0.000010   0.000062   0.000278   0.000034
      9      -0.000098  -0.000084  -0.000071  -0.120525   0.050611  -0.016641
     10      -0.000392  -0.000514  -0.000481  -0.200318   0.015443   0.040463
     11      -0.056217  -0.083056  -0.079360   0.001324  -0.000175  -0.000246
     12      -0.000126   0.000072   0.000074   0.032037  -0.031833   0.038283
     13      -0.000888   0.000375   0.000370   0.145241   0.063293   0.006092
     14      -0.127477   0.063885   0.075219  -0.000906  -0.000371  -0.000078
     15       0.000302  -0.000011   0.000022  -0.008651  -0.024133  -0.008484
     16       0.001852  -0.000127   0.000073   0.002827  -0.074881   0.002963
     17       0.269364  -0.024212  -0.000332  -0.000011   0.000532  -0.000009
     18      -0.000051  -0.000012   0.000012   0.033503   0.004093   0.009775
     19      -0.000506   0.000076  -0.000012  -0.010824   0.012602  -0.003182
     20      -0.074578   0.011165   0.000120   0.000041  -0.000092   0.000012
     21      -0.000008  -0.000012   0.000019  -0.023826   0.001170  -0.019364
     22      -0.000078  -0.000070  -0.000009   0.007645   0.003511   0.006267
     23      -0.010860  -0.010424  -0.000021  -0.000030  -0.000028  -0.000021
     24       0.000380  -0.000480   0.000338   0.239914   0.371278   0.283923
     25       0.003038  -0.002461   0.003206  -0.462541  -0.299858  -0.310365
     26       0.475882  -0.401281   0.475402   0.002743   0.001788   0.001680
     27       0.000545   0.000676  -0.000634   0.256974  -0.507478  -0.545687
     28       0.002927   0.003594  -0.003329   0.289155  -0.061005  -0.141903
     29       0.460389   0.574685  -0.508482  -0.002276   0.001109   0.001503
     30       0.000369   0.000551   0.000408   0.040196   0.375313  -0.360902
     31       0.003009   0.003716   0.003437  -0.385582  -0.344897   0.435176
     32       0.464500   0.569415   0.510656   0.003096   0.002108  -0.002404
     33       0.000543  -0.000464  -0.000662   0.464258  -0.476143   0.411790
     34       0.003005  -0.002647  -0.003268   0.234854  -0.026441   0.085824
     35       0.474885  -0.400222  -0.480487  -0.002483   0.000583  -0.001009
                 24         25         26         27         28         29    
      0      -0.099839   0.001418   0.041692  -0.143123  -0.253090   0.034849
      1      -0.069891  -0.118616  -0.100467   0.145853   0.084367  -0.184396
      2       0.000556   0.000820   0.000625  -0.000794  -0.000251   0.001147
      3       0.077941  -0.103319   0.003051  -0.004311   0.260609   0.189028
      4       0.006841  -0.025884  -0.017034  -0.111143  -0.070679   0.231831
      5      -0.000109   0.000301   0.000122   0.000740   0.000213  -0.001710
      6       0.350820   0.024708   0.057424   0.136769   0.022829  -0.147804
      7      -0.113188   0.077890   0.177781  -0.043863   0.071301  -0.456518
      8       0.000370  -0.000541  -0.001210   0.000143  -0.000481   0.003082
      9       0.059608   0.068835  -0.012465   0.060446  -0.253181  -0.017043
     10      -0.051327  -0.081351  -0.011964   0.093105   0.094612   0.297610
     11       0.000255   0.000479   0.000099  -0.000681  -0.000337  -0.001913
     12      -0.040430  -0.070621  -0.092312  -0.200505   0.255811  -0.136433
     13       0.115006  -0.095772  -0.057117  -0.035022  -0.079264  -0.128999
     14      -0.000705   0.000686   0.000465   0.000439   0.000249   0.000976
     15       0.014132   0.110576   0.012922  -0.110038   0.029100   0.070499
     16      -0.004276   0.342995   0.039997   0.035605   0.088755   0.220440
     17       0.000013  -0.002352  -0.000282  -0.000135  -0.000619  -0.001476
     18      -0.011802  -0.012528   0.002155   0.142386  -0.012537  -0.006447
     19       0.003788  -0.038901   0.006842  -0.045994  -0.037355  -0.021224
     20      -0.000011   0.000273  -0.000043   0.000161   0.000259   0.000141
     21      -0.140758   0.000818  -0.003888  -0.037898  -0.007020   0.006225
     22       0.045425   0.002074  -0.011935   0.012168  -0.021923   0.019010
     23      -0.000149  -0.000008   0.000084  -0.000037   0.000154  -0.000135
     24      -0.457777   0.349379  -0.304661   0.330169   0.120705  -0.289233
     25       0.309175  -0.513497   0.272162  -0.390685  -0.366167   0.171390
     26      -0.001494   0.002350  -0.001662   0.002225   0.001921  -0.000890
     27      -0.288684   0.139256  -0.531704   0.391044  -0.375079  -0.317133
     28      -0.101082   0.023097  -0.143823  -0.044438  -0.240798   0.143138
     29       0.000800  -0.000471   0.001373  -0.000299   0.001653  -0.000234
     30      -0.175767  -0.098181   0.346606   0.344706   0.161165   0.339987
     31       0.251582   0.098732  -0.426423  -0.194839  -0.412751  -0.067815
     32      -0.001299  -0.000936   0.002192   0.000972   0.002167   0.000403
     33      -0.553787  -0.583522   0.405971   0.495573  -0.315225   0.333630
     34       0.016231  -0.212763   0.042722   0.123358  -0.227360  -0.029438
     35       0.000452   0.002120  -0.000659  -0.001318   0.001850  -0.000228
                 30         31         32         33         34         35    
      0      -0.067235   0.248948   0.025504   0.025923   0.039361   0.036499
      1      -0.018185  -0.121855   0.024554   0.025266   0.032720   0.031060
      2       0.000207   0.000526  -0.000183  -0.000188  -0.000249  -0.000236
      3       0.267228  -0.257742   0.007642   0.009910  -0.010364  -0.009767
      4       0.043157  -0.003374  -0.045875  -0.047917   0.037769   0.037052
      5      -0.000560   0.000276   0.000286   0.000299  -0.000231  -0.000229
      6      -0.233360   0.162054   0.004744   0.000684  -0.001383  -0.004119
      7       0.076134  -0.052519  -0.001575   0.002026  -0.003923   0.001421
      8      -0.000252   0.000173   0.000005  -0.000016   0.000027  -0.000005
      9       0.191466  -0.207225   0.034123  -0.035626   0.028967  -0.030343
     10      -0.192062   0.153517   0.033744  -0.032611   0.023317  -0.024945
     11       0.001041  -0.000766  -0.000251   0.000247  -0.000180   0.000192
     12      -0.043295   0.273115   0.006392  -0.005960  -0.012373   0.012085
     13       0.054413  -0.046629  -0.035307   0.034147   0.047793  -0.049028
     14      -0.000311   0.000026   0.000222  -0.000216  -0.000297   0.000305
     15      -0.344427  -0.425636   0.002467  -0.000089  -0.000786   0.004582
     16       0.110655   0.137430  -0.000806  -0.000507  -0.002697  -0.001427
     17      -0.000382  -0.000473   0.000003   0.000005   0.000018   0.000004
     18       0.214887   0.185648  -0.000295  -0.000059   0.000033  -0.001372
     19      -0.069263  -0.059878   0.000098  -0.000132   0.000175   0.000439
     20       0.000245   0.000213  -0.000000   0.000001  -0.000001  -0.000001
     21       0.032334  -0.022776  -0.000667  -0.000009   0.000091   0.000740
     22      -0.010476   0.007348   0.000217  -0.000023   0.000212  -0.000245
     23       0.000033  -0.000025  -0.000001   0.000000  -0.000001   0.000001
     24      -0.240329  -0.165389  -0.315205  -0.317302  -0.427711  -0.402299
     25       0.118649   0.327537  -0.288871  -0.288914  -0.385823  -0.365373
     26      -0.000766  -0.001969   0.002164   0.002160   0.002891   0.002757
     27      -0.464508   0.275571  -0.119831  -0.125747   0.098514   0.095863
     28      -0.109462   0.110975   0.535943   0.555392  -0.418637  -0.413246
     29       0.001316  -0.000878  -0.003309  -0.003433   0.002583   0.002565
     30      -0.313932   0.158751  -0.423139   0.420650  -0.307838   0.326924
     31       0.360265  -0.250719  -0.376162   0.371864  -0.267405   0.285863
     32      -0.002031   0.001328   0.002848  -0.002823   0.002026  -0.002181
     33      -0.265222  -0.325885  -0.088211   0.084951   0.117386  -0.119143
     34       0.044227  -0.169119   0.424510  -0.402312  -0.543288   0.560329
     35       0.000028   0.001432  -0.002656   0.002516   0.003400  -0.003506


-----------
IR SPECTRUM
-----------

 Mode   freq       eps      Int      T**2         TX        TY        TZ
       cm**-1   L/(mol*cm) km/mol    a.u.
----------------------------------------------------------------------------
  6:    173.27   0.000460    2.32  0.000828  (-0.000002  0.000065  0.028780)
  7:    358.26   0.000070    0.35  0.000061  ( 0.000032 -0.000036 -0.007792)
  8:    362.43   0.000401    2.02  0.000345  ( 0.005520  0.017734 -0.000117)
  9:    455.00   0.000016    0.08  0.000011  (-0.003149  0.001160 -0.000008)
 10:    461.39   0.000000    0.00  0.000000  (-0.000008 -0.000190 -0.000068)
 11:    479.36   0.000002    0.01  0.000001  (-0.000401 -0.001118  0.000001)
 12:    534.91   0.002042   10.32  0.001191  ( 0.000109  0.000259 -0.034515)
 13:    633.96   0.000015    0.08  0.000008  ( 0.000759  0.002637 -0.000014)
 14:    720.60   0.000208    1.05  0.000090  (-0.000122 -0.000085  0.009493)
 15:    744.08   0.016360   82.68  0.006861  ( 0.078834 -0.025427  0.000081)
 16:    819.10   0.002517   12.72  0.000959  (-0.029368  0.009821 -0.000029)
 17:    820.38   0.000001    0.01  0.000000  (-0.000615 -0.000077 -0.000168)
 18:    872.64   0.013303   67.23  0.004757  (-0.000042  0.000015  0.068974)
 19:    953.31   0.000073    0.37  0.000024  ( 0.000060 -0.000219  0.004890)
 20:    965.78   0.000000    0.00  0.000000  (-0.000242 -0.000161 -0.000231)
 21:    981.05   0.000198    1.00  0.000063  (-0.007391  0.002907 -0.000011)
 22:   1073.56   0.004729   23.90  0.001375  (-0.011129 -0.035364  0.000259)
 23:   1127.30   0.000985    4.98  0.000273  (-0.015797  0.004821 -0.000015)
 24:   1202.60   0.019232   97.19  0.004990  ( 0.067192 -0.021810  0.000071)
 25:   1218.82   0.001777    8.98  0.000455  (-0.006552 -0.020298  0.000116)
 26:   1280.53   0.001748    8.84  0.000426  (-0.006092 -0.019722  0.000120)
 27:   1408.05   0.000011    0.05  0.000002  (-0.001343  0.000742 -0.000005)
 28:   1445.65   0.006911   34.92  0.001492  ( 0.012174  0.036654 -0.000260)
 29:   1557.09   0.002829   14.30  0.000567  ( 0.007213  0.022692 -0.000147)
 30:   1579.33   0.059398  300.18  0.011737  (-0.103157  0.033094 -0.000110)
 31:   1659.57   0.048844  246.84  0.009185  (-0.091208  0.029422 -0.000095)
 32:   3082.82   0.012202   61.66  0.001235  ( 0.033653 -0.010132  0.000029)
 33:   3083.64   0.000298    1.51  0.000030  (-0.001295 -0.005336  0.000036)
 34:   3103.27   0.018016   91.05  0.001812  ( 0.013132  0.040486 -0.000274)
 35:   3107.37   0.000045    0.23  0.000004  ( 0.001741 -0.001211  0.000005)

* The epsilon (eps) is given for a Dirac delta lineshape.
** The dipole moment derivative (T) already includes vibrational overlap.

The first frequency considered to be a vibration is 6
The total number of vibrations considered is 30


--------------------------
THERMOCHEMISTRY AT 298.15K
--------------------------

Temperature         ... 298.15 K
Pressure            ... 1.00 atm
Total Mass          ... 111.09 AMU

Throughout the following assumptions are being made:
  (1) The electronic state is orbitally nondegenerate
  (2) There are no thermally accessible electronically excited states
  (3) Hindered rotations indicated by low frequency modes are not
      treated as such but are treated as vibrations and this may
      cause some error
  (4) All equations used are the standard statistical mechanics
      equations for an ideal gas
  (5) All vibrations are strictly harmonic

freq.     173.27  E(vib)   ...       0.38 
freq.     358.26  E(vib)   ...       0.22 
freq.     362.43  E(vib)   ...       0.22 
freq.     455.00  E(vib)   ...       0.16 
freq.     461.39  E(vib)   ...       0.16 
freq.     479.36  E(vib)   ...       0.15 
freq.     534.91  E(vib)   ...       0.13 
freq.     633.96  E(vib)   ...       0.09 
freq.     720.60  E(vib)   ...       0.07 
freq.     744.08  E(vib)   ...       0.06 
freq.     819.10  E(vib)   ...       0.05 
freq.     820.38  E(vib)   ...       0.05 
freq.     872.64  E(vib)   ...       0.04 
freq.     953.31  E(vib)   ...       0.03 
freq.     965.78  E(vib)   ...       0.03 
freq.     981.05  E(vib)   ...       0.02 
freq.    1073.56  E(vib)   ...       0.02 
freq.    1127.30  E(vib)   ...       0.01 
freq.    1202.60  E(vib)   ...       0.01 
freq.    1218.82  E(vib)   ...       0.01 
freq.    1280.53  E(vib)   ...       0.01 
freq.    1408.05  E(vib)   ...       0.00 
freq.    1445.65  E(vib)   ...       0.00 
freq.    1557.09  E(vib)   ...       0.00 
freq.    1579.33  E(vib)   ...       0.00 
freq.    1659.57  E(vib)   ...       0.00 
freq.    3082.82  E(vib)   ...       0.00 
freq.    3083.64  E(vib)   ...       0.00 
freq.    3103.27  E(vib)   ...       0.00 
freq.    3107.37  E(vib)   ...       0.00 

------------
INNER ENERGY
------------

The inner energy is: U= E(el) + E(ZPE) + E(vib) + E(rot) + E(trans)
    E(el)   - is the total energy from the electronic structure calculation
              = E(kin-el) + E(nuc-el) + E(el-el) + E(nuc-nuc)
    E(ZPE)  - the the zero temperature vibrational energy from the frequency calculation
    E(vib)  - the the finite temperature correction to E(ZPE) due to population
              of excited vibrational states
    E(rot)  - is the rotational thermal energy
    E(trans)- is the translational thermal energy

Summary of contributions to the inner energy U:
Electronic energy                ...   -405.39925878 Eh
Zero point energy                ...      0.08261807 Eh      51.84 kcal/mol
Thermal vibrational correction   ...      0.00304923 Eh       1.91 kcal/mol
Thermal rotational correction    ...      0.00141627 Eh       0.89 kcal/mol
Thermal translational correction ...      0.00141627 Eh       0.89 kcal/mol
-----------------------------------------------------------------------
Total thermal energy                   -405.31075894 Eh


Summary of corrections to the electronic energy:
(perhaps to be used in another calculation)
Total thermal correction                  0.00588177 Eh       3.69 kcal/mol
Non-thermal (ZPE) correction              0.08261807 Eh      51.84 kcal/mol
-----------------------------------------------------------------------
Total correction                          0.08849984 Eh      55.53 kcal/mol


--------
ENTHALPY
--------

The enthalpy is H = U + kB*T
                kB is Boltzmann's constant
Total free energy                 ...   -405.31075894 Eh 
Thermal Enthalpy correction       ...      0.00094421 Eh       0.59 kcal/mol
-----------------------------------------------------------------------
Total Enthalpy                    ...   -405.30981473 Eh


Note: Only C1 symmetry has been detected, increase convergence thresholds 
      if your molecule has a higher symmetry. Symmetry factor of 1.0 is   
      used for the rotational entropy correction. 
 

Note: Rotational entropy computed according to Herzberg 
Infrared and Raman Spectra, Chapter V,1, Van Nostrand Reinhold, 1945 
Point Group:  C1, Symmetry Number:   1  
Rotational constants in cm-1:     0.186805     0.047990     0.038181 

Vibrational entropy computed according to the QRRHO of S. Grimme
Chem.Eur.J. 2012 18 9955


-------
ENTROPY
-------

The entropy contributions are T*S = T*(S(el)+S(vib)+S(rot)+S(trans))
     S(el)   - electronic entropy
     S(vib)  - vibrational entropy
     S(rot)  - rotational entropy
     S(trans)- translational entropy
The entropies will be listed as multiplied by the temperature to get
units of energy

Electronic entropy                ...      0.00000000 Eh      0.00 kcal/mol
Vibrational entropy               ...      0.00454240 Eh      2.85 kcal/mol
Rotational entropy                ...      0.01327802 Eh      8.33 kcal/mol
Translational entropy             ...      0.01902026 Eh     11.94 kcal/mol
-----------------------------------------------------------------------
Final entropy term                ...      0.03684068 Eh     23.12 kcal/mol

In case the symmetry of your molecule has not been determined correctly
or in case you have a reason to use a different symmetry number we print 
out the resulting rotational entropy values for sn=1,12 :
 --------------------------------------------------------
|  sn= 1 | S(rot)=       0.01327802 Eh      8.33 kcal/mol|
|  sn= 2 | S(rot)=       0.01262357 Eh      7.92 kcal/mol|
|  sn= 3 | S(rot)=       0.01224073 Eh      7.68 kcal/mol|
|  sn= 4 | S(rot)=       0.01196911 Eh      7.51 kcal/mol|
|  sn= 5 | S(rot)=       0.01175842 Eh      7.38 kcal/mol|
|  sn= 6 | S(rot)=       0.01158628 Eh      7.27 kcal/mol|
|  sn= 7 | S(rot)=       0.01144073 Eh      7.18 kcal/mol|
|  sn= 8 | S(rot)=       0.01131465 Eh      7.10 kcal/mol|
|  sn= 9 | S(rot)=       0.01120345 Eh      7.03 kcal/mol|
|  sn=10 | S(rot)=       0.01110397 Eh      6.97 kcal/mol|
|  sn=11 | S(rot)=       0.01101398 Eh      6.91 kcal/mol|
|  sn=12 | S(rot)=       0.01093182 Eh      6.86 kcal/mol|
 --------------------------------------------------------


-------------------
GIBBS FREE ENERGY
-------------------

The Gibbs free energy is G = H - T*S

Total enthalpy                    ...   -405.30981473 Eh 
Total entropy correction          ...     -0.03684068 Eh    -23.12 kcal/mol
-----------------------------------------------------------------------
Final Gibbs free energy         ...   -405.34665541 Eh

For completeness - the Gibbs free energy minus the electronic energy
G-E(el)                           ...      0.05260337 Eh     33.01 kcal/mol


Timings for individual modules:

Sum of individual times         ...       30.004 sec (=   0.500 min)
GTO integral calculation        ...        1.426 sec (=   0.024 min)   4.8 %
SCF iterations                  ...        5.644 sec (=   0.094 min)  18.8 %
Analytical frequency calculation...       22.933 sec (=   0.382 min)  76.4 %
                             ****ORCA TERMINATED NORMALLY****
TOTAL RUN TIME: 0 days 0 hours 0 minutes 31 seconds 468 msec
