
                                 *****************
                                 * O   R   C   A *
                                 *****************

                                            #,                                       
                                            ###                                      
                                            ####                                     
                                            #####                                    
                                            ######                                   
                                           ########,                                 
                                     ,,################,,,,,                         
                               ,,#################################,,                 
                          ,,##########################################,,             
                       ,#########################################, ''#####,          
                    ,#############################################,,   '####,        
                  ,##################################################,,,,####,       
                ,###########''''           ''''###############################       
              ,#####''   ,,,,##########,,,,          '''####'''          '####       
            ,##' ,,,,###########################,,,                        '##       
           ' ,,###''''                  '''############,,,                           
         ,,##''                                '''############,,,,        ,,,,,,###''
      ,#''                                            '''#######################'''  
     '                                                          ''''####''''         
             ,#######,   #######,   ,#######,      ##                                
            ,#'     '#,  ##    ##  ,#'     '#,    #''#        ######   ,####,        
            ##       ##  ##   ,#'  ##            #'  '#       #        #'  '#        
            ##       ##  #######   ##           ,######,      #####,   #    #        
            '#,     ,#'  ##    ##  '#,     ,#' ,#      #,         ##   #,  ,#        
             '#######'   ##     ##  '#######'  #'      '#     #####' # '####'        



                  #######################################################
                  #                        -***-                        #
                  #          Department of theory and spectroscopy      #
                  #    Directorship and core code : Frank Neese         #
                  #        Max Planck Institute fuer Kohlenforschung    #
                  #                Kaiser Wilhelm Platz 1               #
                  #                 D-45470 Muelheim/Ruhr               #
                  #                      Germany                        #
                  #                                                     #
                  #                  All rights reserved                #
                  #                        -***-                        #
                  #######################################################


                         Program Version 5.0.1 -  RELEASE  -


 With contributions from (in alphabetic order):
   Daniel Aravena         : Magnetic Suceptibility
   Michael Atanasov       : Ab Initio Ligand Field Theory (pilot matlab implementation)
   Alexander A. Auer      : GIAO ZORA, VPT2 properties, NMR spectrum
   Ute Becker             : Parallelization
   Giovanni Bistoni       : ED, misc. LED, open-shell LED, HFLD
   Martin Brehm           : Molecular dynamics
   Dmytro Bykov           : SCF Hessian
   Vijay G. Chilkuri      : MRCI spin determinant printing, contributions to CSF-ICE
   Dipayan Datta          : RHF DLPNO-CCSD density
   Achintya Kumar Dutta   : EOM-CC, STEOM-CC
   Dmitry Ganyushin       : Spin-Orbit,Spin-Spin,Magnetic field MRCI
   Miquel Garcia          : C-PCM and meta-GGA Hessian, CC/C-PCM, Gaussian charge scheme
   Yang Guo               : DLPNO-NEVPT2, F12-NEVPT2, CIM, IAO-localization
   Andreas Hansen         : Spin unrestricted coupled pair/coupled cluster methods
   Benjamin Helmich-Paris : MC-RPA, TRAH-SCF, COSX integrals
   Lee Huntington         : MR-EOM, pCC
   Robert Izsak           : Overlap fitted RIJCOSX, COSX-SCS-MP3, EOM
   Marcus Kettner         : VPT2
   Christian Kollmar      : KDIIS, OOCD, Brueckner-CCSD(T), CCSD density, CASPT2, CASPT2-K
   Simone Kossmann        : Meta GGA functionals, TD-DFT gradient, OOMP2, MP2 Hessian
   Martin Krupicka        : Initial AUTO-CI
   Lucas Lang             : DCDCAS
   Marvin Lechner         : AUTO-CI (C++ implementation), FIC-MRCC
   Dagmar Lenk            : GEPOL surface, SMD
   Dimitrios Liakos       : Extrapolation schemes; Compound Job, initial MDCI parallelization
   Dimitrios Manganas     : Further ROCIS development; embedding schemes
   Dimitrios Pantazis     : SARC Basis sets
   Anastasios Papadopoulos: AUTO-CI, single reference methods and gradients
   Taras Petrenko         : DFT Hessian,TD-DFT gradient, ASA, ECA, R-Raman, ABS, FL, XAS/XES, NRVS
   Peter Pinski           : DLPNO-MP2, DLPNO-MP2 Gradient
   Christoph Reimann      : Effective Core Potentials
   Marius Retegan         : Local ZFS, SOC
   Christoph Riplinger    : Optimizer, TS searches, QM/MM, DLPNO-CCSD(T), (RO)-DLPNO pert. Triples
   Tobias Risthaus        : Range-separated hybrids, TD-DFT gradient, RPA, STAB
   Michael Roemelt        : Original ROCIS implementation
   Masaaki Saitow         : Open-shell DLPNO-CCSD energy and density
   Barbara Sandhoefer     : DKH picture change effects
   Avijit Sen             : IP-ROCIS
   Kantharuban Sivalingam : CASSCF convergence, NEVPT2, FIC-MRCI
   Bernardo de Souza      : ESD, SOC TD-DFT
   Georgi Stoychev        : AutoAux, RI-MP2 NMR, DLPNO-MP2 response
   Willem Van den Heuvel  : Paramagnetic NMR
   Boris Wezisla          : Elementary symmetry handling
   Frank Wennmohs         : Technical directorship


 We gratefully acknowledge several colleagues who have allowed us to
 interface, adapt or use parts of their codes:
   Stefan Grimme, W. Hujo, H. Kruse, P. Pracht,  : VdW corrections, initial TS optimization,
                  C. Bannwarth, S. Ehlert          DFT functionals, gCP, sTDA/sTD-DF
   Ed Valeev, F. Pavosevic, A. Kumar             : LibInt (2-el integral package), F12 methods
   Garnet Chan, S. Sharma, J. Yang, R. Olivares  : DMRG
   Ulf Ekstrom                                   : XCFun DFT Library
   Mihaly Kallay                                 : mrcc  (arbitrary order and MRCC methods)
   Jiri Pittner, Ondrej Demel                    : Mk-CCSD
   Frank Weinhold                                : gennbo (NPA and NBO analysis)
   Christopher J. Cramer and Donald G. Truhlar   : smd solvation model
   Lars Goerigk                                  : TD-DFT with DH, B97 family of functionals
   V. Asgeirsson, H. Jonsson                     : NEB implementation
   FAccTs GmbH                                   : IRC, NEB, NEB-TS, DLPNO-Multilevel, CI-OPT
                                                   MM, QMMM, 2- and 3-layer-ONIOM, Crystal-QMMM,
                                                   LR-CPCM, SF, NACMEs, symmetry and pop. for TD-DFT,
                                                   nearIR, NL-DFT gradient (VV10), updates on ESD,
                                                   ML-optimized integration grids
   S Lehtola, MJT Oliveira, MAL Marques          : LibXC Library
   Liviu Ungur et al                             : ANISO software


 Your calculation uses the libint2 library for the computation of 2-el integrals
 For citations please refer to: http://libint.valeyev.net

 Your ORCA version has been built with support for libXC version: 5.1.0
 For citations please refer to: https://tddft.org/programs/libxc/

 This ORCA versions uses:
   CBLAS   interface :  Fast vector & matrix operations
   LAPACKE interface :  Fast linear algebra routines
   SCALAPACK package :  Parallel linear algebra routines
   Shared memory     :  Shared parallel matrices
   BLAS/LAPACK       :  OpenBLAS 0.3.15  USE64BITINT DYNAMIC_ARCH NO_AFFINITY Zen SINGLE_THREADED
        Core in use  :  Zen
   Copyright (c) 2011-2014, The OpenBLAS Project


Your calculation utilizes the atom-pairwise dispersion correction
based on tight binding partial charges (D4)
Cite in your paper:
E.Caldeweyher, C.Bannwarth, S.Grimme, J.Chem.Phys., (2017), 147, 034112.
E.Caldeweyher, S.Ehlert, A.Hansen, H.Neugebauer, S.Grimme, J.Chem.Phys., (2018), in progress.
   

================================================================================

----- Orbital basis set information -----
Your calculation utilizes the basis: def2-SVP
   F. Weigend and R. Ahlrichs, Phys. Chem. Chem. Phys. 7, 3297 (2005).

----- AuxJ basis set information -----
Your calculation utilizes the auxiliary basis: def2/J
   F. Weigend, Phys. Chem. Chem. Phys. 8, 1057 (2006).

================================================================================
                                        WARNINGS
                       Please study these warnings very carefully!
================================================================================



WARNING: Found flag for RIJCOSX approximation but no HF exchange needed!
  ===> : RIJCOSX  will be disabled and Split-RI-J is turned on

WARNING: Geometry Optimization
  ===> : Switching off AutoStart
         For restart on a previous wavefunction, please use MOREAD

INFO   : the flag for use of the SHARK integral package has been found!

================================================================================
                                       INPUT FILE
================================================================================
NAME = p-fluorophenolate_opt_orca.inp
|  1> ! Opt BP86 def2-SVP def2/J RIJCOSX D4
|  2> %geom MaxIter 100 end
|  3> %output 
|  4> xyzfile=True 
|  5> end 
|  6> %scf 
|  7> maxiter 250 
|  8> end
|  9> %output
| 10> Print[P_Hirshfeld] = 1
| 11> end
| 12> % maxcore
| 13> 4000
| 14> %pal nprocs 8
| 15> end
| 16> *xyz -1 1
| 17> C    1.02265695   0.93639607  -0.00707641 
| 18> C   -0.28475184   1.35757584  -0.00845156 
| 19> C   -1.30189577   0.41992427  -0.00135463 
| 20> C   -1.02415322  -0.93535552   0.00710696 
| 21> C    0.28287742  -1.35758917   0.00848922 
| 22> C    1.39215048  -0.44897592   0.00148911 
| 23> O    2.58982209  -0.83505881   0.00273523 
| 24> F   -2.62609355   0.84686212  -0.00274957 
| 25> H    1.82178303   1.66868475  -0.01262589 
| 26> H   -0.53321297   2.41333065  -0.01500991 
| 27> H   -1.84269633  -1.64706590   0.01254054 
| 28> H    0.50341370  -2.41872838   0.01510692 
| 29> *
| 30> 
| 31>                          ****END OF INPUT****
================================================================================

                       *****************************
                       * Geometry Optimization Run *
                       *****************************

Geometry optimization settings:
Update method            Update   .... BFGS
Choice of coordinates    CoordSys .... Z-matrix Internals
Initial Hessian          InHess   .... Almoef's Model

Convergence Tolerances:
Energy Change            TolE     ....  5.0000e-06 Eh
Max. Gradient            TolMAXG  ....  3.0000e-04 Eh/bohr
RMS Gradient             TolRMSG  ....  1.0000e-04 Eh/bohr
Max. Displacement        TolMAXD  ....  4.0000e-03 bohr
RMS Displacement         TolRMSD  ....  2.0000e-03 bohr
Strict Convergence                ....  False
------------------------------------------------------------------------------
                        ORCA OPTIMIZATION COORDINATE SETUP
------------------------------------------------------------------------------

The optimization will be done in new redundant internal coordinates
Making redundant internal coordinates   ...  (new redundants) done
Evaluating the initial hessian          ...  (Almloef) done
Evaluating the coordinates              ...  done
Calculating the B-matrix                .... done
Calculating the G-matrix                .... done
Diagonalizing the G-matrix              .... done
The first mode is                       ....   24
The number of degrees of freedom        ....   30

    -----------------------------------------------------------------
                    Redundant Internal Coordinates


    -----------------------------------------------------------------
         Definition                    Initial Value    Approx d2E/dq
    -----------------------------------------------------------------
      1. B(C   1,C   0)                  1.3736         0.663654   
      2. B(C   2,C   1)                  1.3834         0.640107   
      3. B(C   3,C   2)                  1.3835         0.639960   
      4. B(C   4,C   3)                  1.3735         0.663742   
      5. B(C   5,C   4)                  1.4339         0.531709   
      6. B(C   5,C   0)                  1.4338         0.531886   
      7. B(O   6,C   5)                  1.2584         0.907597   
      8. B(F   7,C   2)                  1.3913         0.517437   
      9. B(H   8,C   0)                  1.0839         0.368235   
     10. B(H   9,C   1)                  1.0846         0.367292   
     11. B(H  10,C   3)                  1.0847         0.367180   
     12. B(H  11,C   4)                  1.0838         0.368350   
     13. A(C   1,C   0,H   8)          119.6420         0.358363   
     14. A(C   1,C   0,C   5)          122.7898         0.427472   
     15. A(C   5,C   0,H   8)          117.5682         0.345202   
     16. A(C   0,C   1,H   9)          121.0990         0.358207   
     17. A(C   0,C   1,C   2)          119.4716         0.441962   
     18. A(C   2,C   1,H   9)          119.4294         0.356015   
     19. A(C   3,C   2,F   7)          119.4512         0.418019   
     20. A(C   1,C   2,F   7)          119.4579         0.418036   
     21. A(C   1,C   2,C   3)          121.0908         0.439069   
     22. A(C   2,C   3,H  10)          119.4260         0.355982   
     23. A(C   2,C   3,C   4)          119.4842         0.441954   
     24. A(C   4,C   3,H  10)          121.0898         0.358196   
     25. A(C   3,C   4,C   5)          122.7751         0.427456   
     26. A(C   5,C   4,H  11)          117.5815         0.345200   
     27. A(C   3,C   4,H  11)          119.6434         0.358390   
     28. A(C   0,C   5,O   6)          122.8008         0.449334   
     29. A(C   0,C   5,C   4)          114.3884         0.410909   
     30. A(C   4,C   5,O   6)          122.8108         0.449307   
     31. D(H   9,C   1,C   0,C   5)    179.9998         0.030759   
     32. D(H   9,C   1,C   0,H   8)     -0.0002         0.030759   
     33. D(C   2,C   1,C   0,H   8)    179.9999         0.030759   
     34. D(C   2,C   1,C   0,C   5)     -0.0002         0.030759   
     35. D(F   7,C   2,C   1,C   0)    180.0000         0.028469   
     36. D(C   3,C   2,C   1,C   0)     -0.0000         0.028469   
     37. D(C   3,C   2,C   1,H   9)   -180.0000         0.028469   
     38. D(F   7,C   2,C   1,H   9)      0.0000         0.028469   
     39. D(H  10,C   3,C   2,F   7)      0.0000         0.028455   
     40. D(H  10,C   3,C   2,C   1)   -179.9999         0.028455   
     41. D(C   4,C   3,C   2,F   7)   -180.0000         0.028455   
     42. D(C   4,C   3,C   2,C   1)      0.0000         0.028455   
     43. D(H  11,C   4,C   3,C   2)   -179.9997         0.030767   
     44. D(C   5,C   4,C   3,H  10)   -179.9999         0.030767   
     45. D(C   5,C   4,C   3,C   2)      0.0002         0.030767   
     46. D(H  11,C   4,C   3,H  10)      0.0002         0.030767   
     47. D(O   6,C   5,C   4,H  11)      0.0007         0.019301   
     48. D(C   0,C   5,C   4,H  11)    179.9996         0.019301   
     49. D(C   0,C   5,C   4,C   3)     -0.0003         0.019301   
     50. D(O   6,C   5,C   0,H   8)     -0.0009         0.019314   
     51. D(O   6,C   5,C   0,C   1)    179.9992         0.019314   
     52. D(O   6,C   5,C   4,C   3)   -179.9992         0.019301   
     53. D(C   4,C   5,C   0,H   8)   -179.9997         0.019314   
     54. D(C   4,C   5,C   0,C   1)      0.0003         0.019314   
    -----------------------------------------------------------------

Number of atoms                         .... 12
Number of degrees of freedom            .... 54

         *************************************************************
         *                GEOMETRY OPTIMIZATION CYCLE   1            *
         *************************************************************
---------------------------------
CARTESIAN COORDINATES (ANGSTROEM)
---------------------------------
  C      1.022657    0.936396   -0.007076
  C     -0.284752    1.357576   -0.008452
  C     -1.301896    0.419924   -0.001355
  C     -1.024153   -0.935356    0.007107
  C      0.282877   -1.357589    0.008489
  C      1.392150   -0.448976    0.001489
  O      2.589822   -0.835059    0.002735
  F     -2.626094    0.846862   -0.002750
  H      1.821783    1.668685   -0.012626
  H     -0.533213    2.413331   -0.015010
  H     -1.842696   -1.647066    0.012541
  H      0.503414   -2.418728    0.015107

----------------------------
CARTESIAN COORDINATES (A.U.)
----------------------------
  NO LB      ZA    FRAG     MASS         X           Y           Z
   0 C     6.0000    0    12.011    1.932542    1.769532   -0.013372
   1 C     6.0000    0    12.011   -0.538103    2.565447   -0.015971
   2 C     6.0000    0    12.011   -2.460226    0.793542   -0.002560
   3 C     6.0000    0    12.011   -1.935369   -1.767566    0.013430
   4 C     6.0000    0    12.011    0.534561   -2.565472    0.016042
   5 C     6.0000    0    12.011    2.630783   -0.848442    0.002814
   6 O     8.0000    0    15.999    4.894054   -1.578032    0.005169
   7 F     9.0000    0    18.998   -4.962598    1.600337   -0.005196
   8 H     1.0000    0     1.008    3.442671    3.153357   -0.023859
   9 H     1.0000    0     1.008   -1.007626    4.560534   -0.028365
  10 H     1.0000    0     1.008   -3.482191   -3.112503    0.023698
  11 H     1.0000    0     1.008    0.951314   -4.570734    0.028548

--------------------------------
INTERNAL COORDINATES (ANGSTROEM)
--------------------------------
 C      0   0   0     0.000000000000     0.00000000     0.00000000
 C      1   0   0     1.373576366229     0.00000000     0.00000000
 C      2   1   0     1.383409775690   119.47162023     0.00000000
 C      3   2   1     1.383472382004   121.09084839     0.00000000
 C      4   3   2     1.373540046644   119.48421298     0.00000000
 C      1   2   3     1.433825089584   122.78976986     0.00000000
 O      6   1   2     1.258363554846   122.80080773   179.99917383
 F      3   2   1     1.391322261080   119.45791933   179.99999415
 H      1   2   3     1.083918815835   119.64199509   179.99987702
 H      2   1   3     1.084617058650   121.09902301   179.99996712
 H      4   3   2     1.084699963916   119.42596953   180.00006189
 H      5   4   3     1.083834151404   119.64336064   180.00026079

---------------------------
INTERNAL COORDINATES (A.U.)
---------------------------
 C      0   0   0     0.000000000000     0.00000000     0.00000000
 C      1   0   0     2.595683156200     0.00000000     0.00000000
 C      2   1   0     2.614265607044   119.47162023     0.00000000
 C      3   2   1     2.614383915832   121.09084839     0.00000000
 C      4   3   2     2.595614522130   119.48421298     0.00000000
 C      1   2   3     2.709536743259   122.78976986     0.00000000
 O      6   1   2     2.377962495567   122.80080773   179.99917383
 F      3   2   1     2.629218037470   119.45791933   179.99999415
 H      1   2   3     2.048309713332   119.64199509   179.99987702
 H      2   1   3     2.049629201027   121.09902301   179.99996712
 H      4   3   2     2.049785869276   119.42596953   180.00006189
 H      5   4   3     2.048149720744   119.64336064   180.00026079

---------------------
BASIS SET INFORMATION
---------------------
There are 4 groups of distinct atoms

 Group   1 Type C   : 7s4p1d contracted to 3s2p1d pattern {511/31/1}
 Group   2 Type O   : 7s4p1d contracted to 3s2p1d pattern {511/31/1}
 Group   3 Type F   : 7s4p1d contracted to 3s2p1d pattern {511/31/1}
 Group   4 Type H   : 4s1p contracted to 2s1p pattern {31/1}

Atom   0C    basis set group =>   1
Atom   1C    basis set group =>   1
Atom   2C    basis set group =>   1
Atom   3C    basis set group =>   1
Atom   4C    basis set group =>   1
Atom   5C    basis set group =>   1
Atom   6O    basis set group =>   2
Atom   7F    basis set group =>   3
Atom   8H    basis set group =>   4
Atom   9H    basis set group =>   4
Atom  10H    basis set group =>   4
Atom  11H    basis set group =>   4
---------------------------------
AUXILIARY/J BASIS SET INFORMATION
---------------------------------
There are 4 groups of distinct atoms

 Group   1 Type C   : 12s5p4d2f1g contracted to 6s4p3d1f1g pattern {711111/2111/211/2/1}
 Group   2 Type O   : 12s5p4d2f1g contracted to 6s4p3d1f1g pattern {711111/2111/211/2/1}
 Group   3 Type F   : 12s5p4d2f1g contracted to 6s4p3d1f1g pattern {711111/2111/211/2/1}
 Group   4 Type H   : 5s2p1d contracted to 3s1p1d pattern {311/2/1}

Atom   0C    basis set group =>   1
Atom   1C    basis set group =>   1
Atom   2C    basis set group =>   1
Atom   3C    basis set group =>   1
Atom   4C    basis set group =>   1
Atom   5C    basis set group =>   1
Atom   6O    basis set group =>   2
Atom   7F    basis set group =>   3
Atom   8H    basis set group =>   4
Atom   9H    basis set group =>   4
Atom  10H    basis set group =>   4
Atom  11H    basis set group =>   4


           ************************************************************
           *        Program running with 8 parallel MPI-processes     *
           *              working on a common directory               *
           ************************************************************
------------------------------------------------------------------------------
                           ORCA GTO INTEGRAL CALCULATION
                           -- RI-GTO INTEGRALS CHOSEN --
------------------------------------------------------------------------------
------------------------------------------------------------------------------
                   ___                                                        
                  /   \      - P O W E R E D   B Y -                         
                 /     \                                                     
                 |  |  |   _    _      __       _____    __    __             
                 |  |  |  | |  | |    /  \     |  _  \  |  |  /  |          
                  \  \/   | |  | |   /    \    | | | |  |  | /  /          
                 / \  \   | |__| |  /  /\  \   | |_| |  |  |/  /          
                |  |  |   |  __  | /  /__\  \  |    /   |      \           
                |  |  |   | |  | | |   __   |  |    \   |  |\   \          
                \     /   | |  | | |  |  |  |  | |\  \  |  | \   \       
                 \___/    |_|  |_| |__|  |__|  |_| \__\ |__|  \__/        
                                                                              
                      - O R C A' S   B I G   F R I E N D -                    
                                      &                                       
                       - I N T E G R A L  F E E D E R -                       
                                                                              
 v1 FN, 2020, v2 2021                                                         
------------------------------------------------------------------------------


Reading SHARK input file p-fluorophenolate_opt_orca.SHARKINP.tmp ... ok
----------------------
SHARK INTEGRAL PACKAGE
----------------------

Number of atoms                             ...     12
Number of basis functions                   ...    132
Number of shells                            ...     60
Maximum angular momentum                    ...      2
Integral batch strategy                     ... SHARK/LIBINT Hybrid
RI-J (if used) integral strategy            ... SPLIT-RIJ (Revised 2003 algorithm where possible)
Printlevel                                  ...      1
Contraction scheme used                     ... SEGMENTED contraction
Coulomb Range Separation                    ... NOT USED
Exchange Range Separation                   ... NOT USED
Finite Nucleus Model                        ... NOT USED
Auxiliary Coulomb fitting basis             ... AVAILABLE
   # of basis functions in Aux-J            ...    436
   # of shells in Aux-J                     ...    140
   Maximum angular momentum in Aux-J        ...      4
Auxiliary J/K fitting basis                 ... NOT available
Auxiliary Correlation fitting basis         ... NOT available
Auxiliary 'external' fitting basis          ... NOT available
Integral threshold                          ...     2.500000e-11
Primitive cut-off                           ...     2.500000e-12
Primitive pair pre-selection threshold      ...     2.500000e-12

Calculating pre-screening integrals         ... done (  0.0 sec) Dimension = 60
Organizing shell pair data                  ... done (  0.0 sec)
Shell pair information
Total number of shell pairs                 ...      1830
Shell pairs after pre-screening             ...      1738
Total number of primitive shell pairs       ...      6902
Primitive shell pairs kept                  ...      4875
          la=0 lb=0:    493 shell pairs
          la=1 lb=0:    614 shell pairs
          la=1 lb=1:    203 shell pairs
          la=2 lb=0:    240 shell pairs
          la=2 lb=1:    153 shell pairs
          la=2 lb=2:     35 shell pairs

Calculating one electron integrals          ... done (  0.0 sec)
Calculating RI/J V-Matrix + Cholesky decomp.... done (  0.0 sec)
Calculating Nuclear repulsion               ... done (  0.0 sec) ENN=    331.361957640675 Eh

SHARK setup successfully completed in   0.1 seconds

Maximum memory used throughout the entire GTOINT-calculation: 8.9 MB


           ************************************************************
           *        Program running with 8 parallel MPI-processes     *
           *              working on a common directory               *
           ************************************************************
-------------------------------------------------------------------------------
                                 ORCA SCF
-------------------------------------------------------------------------------

------------
SCF SETTINGS
------------
Hamiltonian:
 Density Functional     Method          .... DFT(GTOs)
 Exchange Functional    Exchange        .... B88
   X-Alpha parameter    XAlpha          ....  0.666667
   Becke's b parameter  XBeta           ....  0.004200
 Correlation Functional Correlation     .... P86
 LDA part of GGA corr.  LDAOpt          .... PW91-LDA
 Gradients option       PostSCFGGA      .... off
   Density functional embedding theory  .... OFF
 RI-approximation to the Coulomb term is turned on
   Number of AuxJ basis functions       .... 436


General Settings:
 Integral files         IntName         .... p-fluorophenolate_opt_orca
 Hartree-Fock type      HFTyp           .... RHF
 Total Charge           Charge          ....   -1
 Multiplicity           Mult            ....    1
 Number of Electrons    NEL             ....   58
 Basis Dimension        Dim             ....  132
 Nuclear Repulsion      ENuc            ....    331.3619576407 Eh

Convergence Acceleration:
 DIIS                   CNVDIIS         .... on
   Start iteration      DIISMaxIt       ....    12
   Startup error        DIISStart       ....  0.200000
   # of expansion vecs  DIISMaxEq       ....     5
   Bias factor          DIISBfac        ....   1.050
   Max. coefficient     DIISMaxC        ....  10.000
 Trust-Rad. Augm. Hess. CNVTRAH         .... auto
   Auto Start mean grad. ratio tolernc. ....  1.125000
   Auto Start start iteration           ....    20
   Auto Start num. interpolation iter.  ....    10
   Max. Number of Micro iterations      ....    16
   Max. Number of Macro iterations      .... Maxiter - #DIIS iter
   Number of Davidson start vectors     ....     2
   Converg. threshold I  (grad. norm)   ....   1.000e-05
   Converg. threshold II (energy diff.) ....   1.000e-08
   Grad. Scal. Fac. for Micro threshold ....   0.100
   Minimum threshold for Micro iter.    ....   0.010
   NR start threshold (gradient norm)   ....   0.001
   Initial trust radius                 ....   0.400
   Minimum AH scaling param. (alpha)    ....   1.000
   Maximum AH scaling param. (alpha)    .... 1000.000
   Orbital update algorithm             .... Taylor
   White noise on init. David. guess    .... on
   Maximum white noise                  ....   0.010
   Quad. conv. algorithm                .... NR
 SOSCF                  CNVSOSCF        .... on
   Start iteration      SOSCFMaxIt      ....   150
   Startup grad/error   SOSCFStart      ....  0.003300
 Level Shifting         CNVShift        .... on
   Level shift para.    LevelShift      ....    0.2500
   Turn off err/grad.   ShiftErr        ....    0.0010
 Zerner damping         CNVZerner       .... off
 Static damping         CNVDamp         .... on
   Fraction old density DampFac         ....    0.7000
   Max. Damping (<1)    DampMax         ....    0.9800
   Min. Damping (>=0)   DampMin         ....    0.0000
   Turn off err/grad.   DampErr         ....    0.1000
 Fernandez-Rico         CNVRico         .... off

SCF Procedure:
 Maximum # iterations   MaxIter         ....   250
 SCF integral mode      SCFMode         .... Direct
   Integral package                     .... SHARK and LIBINT hybrid scheme
 Reset frequency        DirectResetFreq ....    20
 Integral Threshold     Thresh          ....  2.500e-11 Eh
 Primitive CutOff       TCut            ....  2.500e-12 Eh

Convergence Tolerance:
 Convergence Check Mode ConvCheckMode   .... Total+1el-Energy
 Convergence forced     ConvForced      .... 0
 Energy Change          TolE            ....  1.000e-08 Eh
 1-El. energy change                    ....  1.000e-05 Eh
 Orbital Gradient       TolG            ....  1.000e-05
 Orbital Rotation angle TolX            ....  1.000e-05
 DIIS Error             TolErr          ....  5.000e-07


Diagonalization of the overlap matrix:
Smallest eigenvalue                        ... 2.591e-04
Time for diagonalization                   ...    0.002 sec
Threshold for overlap eigenvalues          ... 1.000e-08
Number of eigenvalues below threshold      ... 0
Time for construction of square roots      ...    0.001 sec
Total time needed                          ...    0.004 sec

Time for model grid setup =    0.043 sec

------------------------------
INITIAL GUESS: MODEL POTENTIAL
------------------------------
Loading Hartree-Fock densities                     ... done
Calculating cut-offs                               ... done
Initializing the effective Hamiltonian             ... done
Setting up the integral package (SHARK)            ... done
Starting the Coulomb interaction                   ... done (   0.0 sec)
Reading the grid                                   ... done
Mapping shells                                     ... done
Starting the XC term evaluation                    ... done (   0.0 sec)
  promolecular density results
     # of electrons  =     57.002273688
     EX              =    -50.252923407
     EC              =     -2.097889219
     EX+EC           =    -52.350812626
Transforming the Hamiltonian                       ... done (   0.0 sec)
Diagonalizing the Hamiltonian                      ... done (   0.0 sec)
Back transforming the eigenvectors                 ... done (   0.0 sec)
Now organizing SCF variables                       ... done
                      ------------------
                      INITIAL GUESS DONE (   0.1 sec)
                      ------------------
-------------------
DFT GRID GENERATION
-------------------

General Integration Accuracy     IntAcc      ... 4.388
Radial Grid Type                 RadialGrid  ... OptM3 with GC (2021)
Angular Grid (max. ang.)         AngularGrid ... 4 (Lebedev-302)
Angular grid pruning method      GridPruning ... 4 (adaptive)
Weight generation scheme         WeightScheme... Becke
Basis function cutoff            BFCut       ... 1.0000e-11
Integration weight cutoff        WCut        ... 1.0000e-14
Angular grids for H and He will be reduced by one unit
Partially contracted basis set               ... off
Rotationally invariant grid construction     ... off

Total number of grid points                  ...    61244
Total number of batches                      ...      963
Average number of points per batch           ...       63
Average number of grid points per atom       ...     5104
Time for grid setup =    0.274 sec

--------------
SCF ITERATIONS
--------------
ITER       Energy         Delta-E        Max-DP      RMS-DP      [F,P]     Damp
               ***  Starting incremental Fock matrix formation  ***
  0   -405.5846633376   0.000000000000 0.27761122  0.00673919  0.3081681 0.7000
  1   -405.7129551502  -0.128291812626 0.16025823  0.00423408  0.0955935 0.7000
                               ***Turning on DIIS***
  2   -405.7530048889  -0.040049738703 0.10000437  0.00467452  0.0305290 0.0000
  3   -405.8194004834  -0.066395594473 0.12544710  0.00339923  0.0504710 0.0000
  4   -405.8370381967  -0.017637713339 0.02003271  0.00077793  0.0303217 0.0000
  5   -405.8397767060  -0.002738509285 0.00614981  0.00032387  0.0046556 0.0000
  6   -405.8399069758  -0.000130269802 0.00278929  0.00013855  0.0039121 0.0000
                      *** Initiating the SOSCF procedure ***
                           *** Shutting down DIIS ***
                      *** Re-Reading the Fockian *** 
                      *** Removing any level shift *** 
ITER      Energy       Delta-E        Grad      Rot      Max-DP    RMS-DP
  7   -405.83993962  -0.0000326392  0.000218  0.000218  0.001446  0.000057
               *** Restarting incremental Fock matrix formation ***
  8   -405.83994344  -0.0000038242  0.000116  0.000459  0.000856  0.000035
  9   -405.83994343   0.0000000076  0.000240  0.000752  0.000584  0.000024
 10   -405.83994367  -0.0000002393  0.000137  0.000437  0.000348  0.000020
 11   -405.83994383  -0.0000001570  0.000029  0.000057  0.000083  0.000004
 12   -405.83994383   0.0000000005  0.000026  0.000058  0.000066  0.000004
 13   -405.83994384  -0.0000000154  0.000010  0.000037  0.000033  0.000001
 14   -405.83994385  -0.0000000035  0.000010  0.000015  0.000019  0.000001
 15   -405.83994384   0.0000000030  0.000005  0.000011  0.000019  0.000001
 16   -405.83994384   0.0000000032  0.000004  0.000005  0.000011  0.000000
                 **** Energy Check signals convergence ****
              ***Rediagonalizing the Fockian in SOSCF/NRSCF***

               *****************************************************
               *                     SUCCESS                       *
               *           SCF CONVERGED AFTER  17 CYCLES          *
               *****************************************************


----------------
TOTAL SCF ENERGY
----------------

Total Energy       :         -405.83994384 Eh          -11043.46631 eV

Components:
Nuclear Repulsion  :          331.36195764 Eh            9016.81727 eV
Electronic Energy  :         -737.20190148 Eh          -20060.28358 eV
One Electron Energy:        -1222.28304954 Eh          -33260.01268 eV
Two Electron Energy:          485.08114805 Eh           13199.72910 eV

Virial components:
Potential Energy   :         -808.22724403 Eh          -21992.98141 eV
Kinetic Energy     :          402.38730019 Eh           10949.51510 eV
Virial Ratio       :            2.00858040


DFT components:
N(Alpha)           :       29.000008355864 electrons
N(Beta)            :       29.000008355864 electrons
N(Total)           :       58.000016711728 electrons
E(X)               :      -51.223243944162 Eh       
E(C)               :       -2.149348667202 Eh       
E(XC)              :      -53.372592611364 Eh       
DFET-embed. en.    :        0.000000000000 Eh       

---------------
SCF CONVERGENCE
---------------

  Last Energy change         ...   -3.8937e-09  Tolerance :   1.0000e-08
  Last MAX-Density change    ...    1.2054e-05  Tolerance :   1.0000e-07
  Last RMS-Density change    ...    3.1164e-07  Tolerance :   5.0000e-09
  Last Orbital Gradient      ...    1.0161e-06  Tolerance :   1.0000e-05
  Last Orbital Rotation      ...    3.0537e-06  Tolerance :   1.0000e-05

             **** THE GBW FILE WAS UPDATED (p-fluorophenolate_opt_orca.gbw) ****
             **** DENSITY p-fluorophenolate_opt_orca.scfp WAS UPDATED ****
             **** ENERGY FILE WAS UPDATED (p-fluorophenolate_opt_orca.en.tmp) ****
             **** THE GBW FILE WAS UPDATED (p-fluorophenolate_opt_orca.gbw) ****
             **** DENSITY p-fluorophenolate_opt_orca.scfp WAS UPDATED ****
----------------
ORBITAL ENERGIES
----------------

  NO   OCC          E(Eh)            E(eV) 
   0   2.0000     -24.115312      -656.2110 
   1   2.0000     -18.502050      -503.4664 
   2   2.0000      -9.790095      -266.4020 
   3   2.0000      -9.753593      -265.4088 
   4   2.0000      -9.738029      -264.9852 
   5   2.0000      -9.738025      -264.9851 
   6   2.0000      -9.713526      -264.3185 
   7   2.0000      -9.713521      -264.3183 
   8   2.0000      -0.911028       -24.7903 
   9   2.0000      -0.677508       -18.4359 
  10   2.0000      -0.581452       -15.8221 
  11   2.0000      -0.495893       -13.4939 
  12   2.0000      -0.449280       -12.2255 
  13   2.0000      -0.370426       -10.0798 
  14   2.0000      -0.344245        -9.3674 
  15   2.0000      -0.305175        -8.3042 
  16   2.0000      -0.249899        -6.8001 
  17   2.0000      -0.228232        -6.2105 
  18   2.0000      -0.221584        -6.0296 
  19   2.0000      -0.204991        -5.5781 
  20   2.0000      -0.196251        -5.3403 
  21   2.0000      -0.167269        -4.5516 
  22   2.0000      -0.151328        -4.1178 
  23   2.0000      -0.124016        -3.3746 
  24   2.0000      -0.119249        -3.2449 
  25   2.0000      -0.082713        -2.2507 
  26   2.0000      -0.055420        -1.5080 
  27   2.0000       0.027445         0.7468 
  28   2.0000       0.035318         0.9611 
  29   0.0000       0.143177         3.8960 
  30   0.0000       0.188794         5.1373 
  31   0.0000       0.196736         5.3535 
  32   0.0000       0.227192         6.1822 
  33   0.0000       0.263574         7.1722 
  34   0.0000       0.279581         7.6078 
  35   0.0000       0.283136         7.7045 
  36   0.0000       0.312694         8.5088 
  37   0.0000       0.389344        10.5946 
  38   0.0000       0.403620        10.9831 
  39   0.0000       0.453542        12.3415 
  40   0.0000       0.456939        12.4339 
  41   0.0000       0.489126        13.3098 
  42   0.0000       0.494416        13.4537 
  43   0.0000       0.533413        14.5149 
  44   0.0000       0.542442        14.7606 
  45   0.0000       0.596488        16.2313 
  46   0.0000       0.608404        16.5555 
  47   0.0000       0.609470        16.5845 
  48   0.0000       0.650816        17.7096 
  49   0.0000       0.651106        17.7175 
  50   0.0000       0.661119        17.9900 
  51   0.0000       0.682896        18.5826 
  52   0.0000       0.722256        19.6536 
  53   0.0000       0.730199        19.8697 
  54   0.0000       0.743843        20.2410 
  55   0.0000       0.751915        20.4606 
  56   0.0000       0.756030        20.5726 
  57   0.0000       0.797707        21.7067 
  58   0.0000       0.817749        22.2521 
  59   0.0000       0.825698        22.4684 
  60   0.0000       0.830867        22.6090 
  61   0.0000       0.853205        23.2169 
  62   0.0000       0.900053        24.4917 
  63   0.0000       0.910984        24.7891 
  64   0.0000       0.911089        24.7920 
  65   0.0000       0.944710        25.7069 
  66   0.0000       0.998165        27.1615 
  67   0.0000       1.011834        27.5334 
  68   0.0000       1.084524        29.5114 
  69   0.0000       1.190448        32.3937 
  70   0.0000       1.201754        32.7014 
  71   0.0000       1.211745        32.9733 
  72   0.0000       1.268011        34.5043 
  73   0.0000       1.354509        36.8581 
  74   0.0000       1.359368        36.9903 
  75   0.0000       1.364508        37.1302 
  76   0.0000       1.366053        37.1722 
  77   0.0000       1.372019        37.3345 
  78   0.0000       1.397036        38.0153 
  79   0.0000       1.421152        38.6715 
  80   0.0000       1.558013        42.3957 
  81   0.0000       1.562341        42.5135 
  82   0.0000       1.572343        42.7856 
  83   0.0000       1.632270        44.4163 
  84   0.0000       1.662527        45.2397 
  85   0.0000       1.782949        48.5165 
  86   0.0000       1.788424        48.6655 
  87   0.0000       1.841257        50.1031 
  88   0.0000       1.856037        50.5053 
  89   0.0000       1.857881        50.5555 
  90   0.0000       1.863830        50.7174 
  91   0.0000       1.875631        51.0385 
  92   0.0000       1.915085        52.1121 
  93   0.0000       1.952309        53.1250 
  94   0.0000       1.980012        53.8789 
  95   0.0000       1.986986        54.0686 
  96   0.0000       2.016387        54.8687 
  97   0.0000       2.075811        56.4857 
  98   0.0000       2.087605        56.8066 
  99   0.0000       2.173670        59.1486 
 100   0.0000       2.183131        59.4060 
 101   0.0000       2.233975        60.7895 
 102   0.0000       2.263223        61.5854 
 103   0.0000       2.266372        61.6711 
 104   0.0000       2.333521        63.4983 
 105   0.0000       2.372046        64.5466 
 106   0.0000       2.377383        64.6919 
 107   0.0000       2.413835        65.6838 
 108   0.0000       2.461384        66.9777 
 109   0.0000       2.509322        68.2821 
 110   0.0000       2.544468        69.2385 
 111   0.0000       2.613412        71.1146 
 112   0.0000       2.694094        73.3100 
 113   0.0000       2.702763        73.5459 
 114   0.0000       2.731745        74.3346 
 115   0.0000       2.833011        77.0901 
 116   0.0000       2.857574        77.7585 
 117   0.0000       2.884037        78.4786 
 118   0.0000       2.934167        79.8427 
 119   0.0000       2.956436        80.4487 
 120   0.0000       2.993973        81.4701 
 121   0.0000       3.042934        82.8025 
 122   0.0000       3.154751        85.8451 
 123   0.0000       3.179955        86.5310 
 124   0.0000       3.255144        88.5770 
 125   0.0000       3.273880        89.0868 
 126   0.0000       3.350015        91.1585 
 127   0.0000       3.494720        95.0962 
 128   0.0000       3.513407        95.6047 
 129   0.0000       3.644098        99.1609 
 130   0.0000       3.748005       101.9884 
 131   0.0000       3.942009       107.2675 

                    ********************************
                    * MULLIKEN POPULATION ANALYSIS *
                    ********************************

-----------------------
MULLIKEN ATOMIC CHARGES
-----------------------
   0 C :   -0.134155
   1 C :   -0.048324
   2 C :    0.198540
   3 C :   -0.048524
   4 C :   -0.133941
   5 C :    0.159767
   6 O :   -0.376871
   7 F :   -0.258914
   8 H :   -0.095384
   9 H :   -0.083399
  10 H :   -0.083347
  11 H :   -0.095449
Sum of atomic charges:   -1.0000000

--------------------------------
MULLIKEN REDUCED ORBITAL CHARGES
--------------------------------
  0 C s       :     3.271177  s :     3.271177
      pz      :     1.108819  p :     2.832622
      px      :     0.773144
      py      :     0.950659
      dz2     :     0.002457  d :     0.030355
      dxz     :     0.004476
      dyz     :     0.003213
      dx2y2   :     0.008852
      dxy     :     0.011358
  1 C s       :     3.219257  s :     3.219257
      pz      :     1.076572  p :     2.794082
      px      :     0.947696
      py      :     0.769814
      dz2     :     0.002449  d :     0.034985
      dxz     :     0.009542
      dyz     :     0.002379
      dx2y2   :     0.009502
      dxy     :     0.011113
  2 C s       :     2.961202  s :     2.961202
      pz      :     1.147547  p :     2.770056
      px      :     0.673248
      py      :     0.949262
      dz2     :     0.005269  d :     0.070202
      dxz     :     0.011806
      dyz     :     0.008049
      dx2y2   :     0.023431
      dxy     :     0.021647
  3 C s       :     3.219275  s :     3.219275
      pz      :     1.076605  p :     2.794266
      px      :     0.821082
      py      :     0.896579
      dz2     :     0.002449  d :     0.034984
      dxz     :     0.005415
      dyz     :     0.006506
      dx2y2   :     0.009518
      dxy     :     0.011096
  4 C s       :     3.271194  s :     3.271194
      pz      :     1.108755  p :     2.832392
      px      :     0.896312
      py      :     0.827325
      dz2     :     0.002456  d :     0.030354
      dxz     :     0.006065
      dyz     :     0.001623
      dx2y2   :     0.010934
      dxy     :     0.009276
  5 C s       :     2.929573  s :     2.929573
      pz      :     0.925615  p :     2.819535
      px      :     0.936035
      py      :     0.957885
      dz2     :     0.004596  d :     0.091125
      dxz     :     0.021104
      dyz     :     0.006061
      dx2y2   :     0.026693
      dxy     :     0.032671
  6 O s       :     3.699632  s :     3.699632
      pz      :     1.520509  p :     4.663005
      px      :     1.381798
      py      :     1.760698
      dz2     :     0.001684  d :     0.014233
      dxz     :     0.003768
      dyz     :     0.000404
      dx2y2   :     0.004501
      dxy     :     0.003875
  7 F s       :     3.895781  s :     3.895781
      pz      :     1.919572  p :     5.356724
      px      :     1.552041
      py      :     1.885111
      dz2     :     0.000836  d :     0.006409
      dxz     :     0.001568
      dyz     :     0.000175
      dx2y2   :     0.002093
      dxy     :     0.001737
  8 H s       :     1.072783  s :     1.072783
      pz      :     0.006084  p :     0.022601
      px      :     0.009099
      py      :     0.007418
  9 H s       :     1.060787  s :     1.060787
      pz      :     0.005826  p :     0.022611
      px      :     0.004479
      py      :     0.012306
 10 H s       :     1.060740  s :     1.060740
      pz      :     0.005824  p :     0.022607
      px      :     0.009040
      py      :     0.007743
 11 H s       :     1.072843  s :     1.072843
      pz      :     0.006087  p :     0.022606
      px      :     0.004444
      py      :     0.012075


                     *******************************
                     * LOEWDIN POPULATION ANALYSIS *
                     *******************************

----------------------
LOEWDIN ATOMIC CHARGES
----------------------
   0 C :   -0.119865
   1 C :   -0.097914
   2 C :   -0.014551
   3 C :   -0.097937
   4 C :   -0.119824
   5 C :   -0.040811
   6 O :   -0.365483
   7 F :   -0.140814
   8 H :   -0.005139
   9 H :    0.003742
  10 H :    0.003752
  11 H :   -0.005155

-------------------------------
LOEWDIN REDUCED ORBITAL CHARGES
-------------------------------
  0 C s       :     2.876888  s :     2.876888
      pz      :     1.074264  p :     3.156471
      px      :     1.033858
      py      :     1.048349
      dz2     :     0.007181  d :     0.086506
      dxz     :     0.009636
      dyz     :     0.006899
      dx2y2   :     0.028075
      dxy     :     0.034715
  1 C s       :     2.859066  s :     2.859066
      pz      :     1.041039  p :     3.142078
      px      :     1.078909
      py      :     1.022131
      dz2     :     0.006693  d :     0.096771
      dxz     :     0.021853
      dyz     :     0.004421
      dx2y2   :     0.029404
      dxy     :     0.034400
  2 C s       :     2.851918  s :     2.851918
      pz      :     1.134026  p :     2.992232
      px      :     0.786430
      py      :     1.071776
      dz2     :     0.011858  d :     0.170401
      dxz     :     0.023787
      dyz     :     0.017456
      dx2y2   :     0.059729
      dxy     :     0.057572
  3 C s       :     2.859092  s :     2.859092
      pz      :     1.041062  p :     3.142081
      px      :     1.059063
      py      :     1.041956
      dz2     :     0.006692  d :     0.096763
      dxz     :     0.012002
      dyz     :     0.014270
      dx2y2   :     0.030431
      dxy     :     0.033368
  4 C s       :     2.876884  s :     2.876884
      pz      :     1.074214  p :     3.156435
      px      :     1.055904
      py      :     1.026318
      dz2     :     0.007181  d :     0.086505
      dxz     :     0.013551
      dyz     :     0.002983
      dx2y2   :     0.033543
      dxy     :     0.029248
  5 C s       :     2.843311  s :     2.843311
      pz      :     0.920831  p :     2.974539
      px      :     1.006570
      py      :     1.047139
      dz2     :     0.011627  d :     0.222960
      dxz     :     0.042784
      dyz     :     0.012656
      dx2y2   :     0.070128
      dxy     :     0.085766
  6 O s       :     3.561776  s :     3.561776
      pz      :     1.530222  p :     4.778200
      px      :     1.476670
      py      :     1.771308
      dz2     :     0.003628  d :     0.025507
      dxz     :     0.005158
      dyz     :     0.000548
      dx2y2   :     0.008980
      dxy     :     0.007194
  7 F s       :     3.745877  s :     3.745877
      pz      :     1.920771  p :     5.384718
      px      :     1.575652
      py      :     1.888294
      dz2     :     0.001389  d :     0.010220
      dxz     :     0.002469
      dyz     :     0.000270
      dx2y2   :     0.003387
      dxy     :     0.002705
  8 H s       :     0.934087  s :     0.934087
      pz      :     0.019203  p :     0.071051
      px      :     0.026954
      py      :     0.024894
  9 H s       :     0.927055  s :     0.927055
      pz      :     0.017223  p :     0.069203
      px      :     0.014124
      py      :     0.037856
 10 H s       :     0.927061  s :     0.927061
      pz      :     0.017218  p :     0.069188
      px      :     0.027881
      py      :     0.024089
 11 H s       :     0.934089  s :     0.934089
      pz      :     0.019209  p :     0.071067
      px      :     0.013011
      py      :     0.038847


                      *****************************
                      * MAYER POPULATION ANALYSIS *
                      *****************************

  NA   - Mulliken gross atomic population
  ZA   - Total nuclear charge
  QA   - Mulliken gross atomic charge
  VA   - Mayer's total valence
  BVA  - Mayer's bonded valence
  FA   - Mayer's free valence

  ATOM       NA         ZA         QA         VA         BVA        FA
  0 C      6.1342     6.0000    -0.1342     3.6840     3.6840    -0.0000
  1 C      6.0483     6.0000    -0.0483     3.7039     3.7039    -0.0000
  2 C      5.8015     6.0000     0.1985     3.8256     3.8256    -0.0000
  3 C      6.0485     6.0000    -0.0485     3.7040     3.7040    -0.0000
  4 C      6.1339     6.0000    -0.1339     3.6840     3.6840     0.0000
  5 C      5.8402     6.0000     0.1598     4.2155     4.2155     0.0000
  6 O      8.3769     8.0000    -0.3769     2.1523     2.1523    -0.0000
  7 F      9.2589     9.0000    -0.2589     1.0944     1.0944     0.0000
  8 H      1.0954     1.0000    -0.0954     0.9981     0.9981    -0.0000
  9 H      1.0834     1.0000    -0.0834     0.9782     0.9782     0.0000
 10 H      1.0833     1.0000    -0.0833     0.9783     0.9783    -0.0000
 11 H      1.0954     1.0000    -0.0954     0.9980     0.9980     0.0000

  Mayer bond orders larger than 0.100000
B(  0-C ,  1-C ) :   1.3479 B(  0-C ,  5-C ) :   1.1508 B(  0-C ,  8-H ) :   0.9637 
B(  1-C ,  2-C ) :   1.3309 B(  1-C ,  9-H ) :   0.9712 B(  2-C ,  3-C ) :   1.3309 
B(  2-C ,  7-F ) :   1.0025 B(  3-C ,  4-C ) :   1.3480 B(  3-C , 10-H ) :   0.9711 
B(  4-C ,  5-C ) :   1.1506 B(  4-C , 11-H ) :   0.9638 B(  5-C ,  6-O ) :   1.8689 



------------------
HIRSHFELD ANALYSIS
------------------

Total integrated alpha density =     29.000008356
Total integrated beta density  =     29.000008356

  ATOM     CHARGE      SPIN    
   0 C   -0.110226    0.000000
   1 C   -0.101813    0.000000
   2 C    0.010602    0.000000
   3 C   -0.101826    0.000000
   4 C   -0.110191    0.000000
   5 C    0.035021    0.000000
   6 O   -0.450541    0.000000
   7 F   -0.174258    0.000000
   8 H   -0.004125    0.000000
   9 H    0.005731    0.000000
  10 H    0.005708    0.000000
  11 H   -0.004099    0.000000

  TOTAL  -1.000017    0.000000

-------
TIMINGS
-------

Total SCF time: 0 days 0 hours 0 min 2 sec 

Total time                  ....       2.037 sec
Sum of individual times     ....       1.954 sec  ( 95.9%)

Fock matrix formation       ....       1.452 sec  ( 71.3%)
  Split-RI-J                ....       0.476 sec  ( 32.8% of F)
  XC integration            ....       0.960 sec  ( 66.1% of F)
    Basis function eval.    ....       0.343 sec  ( 35.7% of XC)
    Density eval.           ....       0.212 sec  ( 22.1% of XC)
    XC-Functional eval.     ....       0.104 sec  ( 10.8% of XC)
    XC-Potential eval.      ....       0.177 sec  ( 18.5% of XC)
Diagonalization             ....       0.027 sec  (  1.3%)
Density matrix formation    ....       0.004 sec  (  0.2%)
Population analysis         ....       0.073 sec  (  3.6%)
Initial guess               ....       0.033 sec  (  1.6%)
Orbital Transformation      ....       0.000 sec  (  0.0%)
Orbital Orthonormalization  ....       0.000 sec  (  0.0%)
DIIS solution               ....       0.022 sec  (  1.1%)
SOSCF solution              ....       0.026 sec  (  1.3%)
Grid generation             ....       0.316 sec  ( 15.5%)

Maximum memory used throughout the entire SCF-calculation: 16.9 MB


-------------------------------------------------------------------------------
                          DFT DISPERSION CORRECTION                            
                                                                               
                                 DFTD4 V2.5                                    
-------------------------------------------------------------------------------
The BP86 functional is recognized
Active option DFTDOPT                   ...         5   

Starting D4
-------------------------   ----------------
Dispersion correction           -0.017210756
-------------------------   ----------------


-------------------------   --------------------
FINAL SINGLE POINT ENERGY      -405.857154599539
-------------------------   --------------------



           ************************************************************
           *        Program running with 8 parallel MPI-processes     *
           *              working on a common directory               *
           ************************************************************
------------------------------------------------------------------------------
                         ORCA SCF GRADIENT CALCULATION
------------------------------------------------------------------------------

Gradient of the Kohn-Sham DFT energy:
Kohn-Sham wavefunction type      ... RKS
Hartree-Fock exchange scaling    ...    0.000
Number of operators              ...    1
Number of atoms                  ...   12
Basis set dimensions             ...  132
Integral neglect threshold       ... 2.5e-11
Integral primitive cutoff        ... 2.5e-12
SHARK Integral package           ... ON

Nuc. rep. gradient       (SHARK) ... done (  0.0 sec)
HCore & Overlap gradient (SHARK) ... done (  0.0 sec)
RI-J gradient            (SHARK) ... done (  0.1 sec)
Exchange-correlation gradient    ... done
Dispersion correction            ... Starting D4
Starting D4
Starting D4
Starting D4


------------------- 
Dispersion Gradient 
------------------- 
   1  :    0.000238878    0.000222546   -0.000001681
   2  :   -0.000103282    0.000348710   -0.000002144
   3  :   -0.000293004    0.000094502   -0.000000309
   4  :   -0.000287517   -0.000222644    0.000001733
   5  :    0.000063843   -0.000320241    0.000002001
   6  :    0.000256143   -0.000082609    0.000000271
   7  :    0.000519769   -0.000167571    0.000000546
   8  :   -0.000391106    0.000126123   -0.000000412
   9  :    0.000104770    0.000089104   -0.000000683
  10  :   -0.000040021    0.000134585   -0.000000828
  11  :   -0.000111109   -0.000085847    0.000000668
  12  :    0.000032938   -0.000133542    0.000000828

  |G| =    0.004482506

Starting D4
Starting D4
Starting D4
Starting D4
done

------------------
CARTESIAN GRADIENT
------------------

   1   C   :   -0.005150006   -0.004294757    0.000032192
   2   C   :    0.007483230   -0.006552214    0.000035195
   3   C   :    0.024803551   -0.007942175    0.000021908
   4   C   :    0.009958406    0.001001186   -0.000015849
   5   C   :   -0.001745844    0.006357431   -0.000039419
   6   C   :   -0.014464687    0.004700018   -0.000011556
   7   O   :   -0.018624283    0.006023421   -0.000020782
   8   F   :   -0.000919438    0.000282274   -0.000000338
   9   H   :   -0.011508484   -0.007350571    0.000058794
  10   H   :    0.004284293   -0.012787843    0.000078495
  11   H   :    0.010923299    0.007824824   -0.000061175
  12   H   :   -0.005049735    0.012741521   -0.000077475

Difference to translation invariance:
           :   -0.0000096969    0.0000031169   -0.0000000102

Difference to rotation invariance:
           :   -0.0000042671   -0.0000040091   -0.0000428219

Norm of the cartesian gradient     ...    0.0481455528
RMS gradient                       ...    0.0080242588
MAX gradient                       ...    0.0248035510

-------
TIMINGS
-------

Total SCF gradient time            ...        0.505 sec

One electron gradient       ....       0.013 sec  (  2.7%)
RI-J Coulomb gradient       ....       0.117 sec  ( 23.2%)
XC gradient                 ....       0.292 sec  ( 57.8%)

Maximum memory used throughout the entire SCFGRAD-calculation: 28.6 MB
------------------------------------------------------------------------------
                         ORCA GEOMETRY RELAXATION STEP
------------------------------------------------------------------------------

Reading the OPT-File                    .... done
Getting information on internals        .... done
Copying old internal coords+grads       .... done
Making the new internal coordinates     .... (new redundants).... done
Validating the new internal coordinates .... (new redundants).... done
Calculating the B-matrix                .... done
Calculating the G,G- and P matrices     .... done
Transforming gradient to internals      .... done
Projecting the internal gradient        .... done
Number of atoms                         ....  12
Number of internal coordinates          ....  54
Current Energy                          ....  -405.857154600 Eh
Current gradient norm                   ....     0.048145553 Eh/bohr
Maximum allowed component of the step   ....  0.300
Current trust radius                    ....  0.300
Evaluating the initial hessian          ....  (Almloef) done
Projecting the Hessian                  .... done
Forming the augmented Hessian           .... done
Diagonalizing the augmented Hessian     .... done
Last element of RFO vector              ....  0.992260474
Lowest eigenvalues of augmented Hessian:
 -0.008385386  0.019307256  0.021804326  0.024529032  0.025528163
Length of the computed step             ....  0.125142419
The final length of the internal step   ....  0.125142419
Converting the step to cartesian space:
 Initial RMS(Int)=    0.0170297262
Transforming coordinates:
 Iter   0:  RMS(Cart)=    0.0319993180 RMS(Int)=    2.8358678787
 Iter   1:  RMS(Cart)=    0.0001036464 RMS(Int)=    0.0000585134
 Iter   2:  RMS(Cart)=    0.0000016715 RMS(Int)=    0.0000008786
 Iter   3:  RMS(Cart)=    0.0000000222 RMS(Int)=    0.0000000115
done
Storing new coordinates                 .... done

                                .--------------------.
          ----------------------|Geometry convergence|-------------------------
          Item                value                   Tolerance       Converged
          ---------------------------------------------------------------------
          RMS gradient        0.0094230123            0.0001000000      NO
          MAX gradient        0.0297027615            0.0003000000      NO
          RMS step            0.0170297262            0.0020000000      NO
          MAX step            0.0441911278            0.0040000000      NO
          ........................................................
          Max(Bonds)      0.0234      Max(Angles)    0.87
          Max(Dihed)        0.00      Max(Improp)    0.00
          ---------------------------------------------------------------------

The optimization has not yet converged - more geometry cycles are needed


    ---------------------------------------------------------------------------
                         Redundant Internal Coordinates
                            (Angstroem and degrees)

        Definition                    Value    dE/dq     Step     New-Value
    ----------------------------------------------------------------------------
     1. B(C   1,C   0)                1.3736 -0.029685  0.0234    1.3970   
     2. B(C   2,C   1)                1.3834 -0.019038  0.0157    1.3991   
     3. B(C   3,C   2)                1.3835 -0.018997  0.0157    1.3991   
     4. B(C   4,C   3)                1.3735 -0.029703  0.0234    1.3969   
     5. B(C   5,C   4)                1.4339 -0.022999  0.0224    1.4563   
     6. B(C   5,C   0)                1.4338 -0.023059  0.0224    1.4562   
     7. B(O   6,C   5)                1.2584 -0.019573  0.0113    1.2697   
     8. B(F   7,C   2)                1.3913  0.000961 -0.0010    1.3904   
     9. B(H   8,C   0)                1.0839 -0.013451  0.0189    1.1028   
    10. B(H   9,C   1)                1.0846 -0.013430  0.0189    1.1035   
    11. B(H  10,C   3)                1.0847 -0.013378  0.0188    1.1035   
    12. B(H  11,C   4)                1.0838 -0.013502  0.0190    1.1028   
    13. A(C   1,C   0,H   8)          119.64 -0.001006    0.21    119.85   
    14. A(C   1,C   0,C   5)          122.79 -0.002815    0.36    123.15   
    15. A(C   5,C   0,H   8)          117.57  0.003821   -0.57    117.00   
    16. A(C   0,C   1,H   9)          121.10 -0.000269    0.06    121.16   
    17. A(C   0,C   1,C   2)          119.47 -0.002006    0.29    119.76   
    18. A(C   2,C   1,H   9)          119.43  0.002274   -0.34    119.09   
    19. A(C   3,C   2,F   7)          119.45 -0.001789    0.21    119.67   
    20. A(C   1,C   2,F   7)          119.46 -0.001751    0.21    119.67   
    21. A(C   1,C   2,C   3)          121.09  0.003540   -0.42    120.67   
    22. A(C   2,C   3,H  10)          119.43  0.002283   -0.34    119.08   
    23. A(C   2,C   3,C   4)          119.48 -0.001974    0.28    119.77   
    24. A(C   4,C   3,H  10)          121.09 -0.000309    0.06    121.15   
    25. A(C   3,C   4,C   5)          122.78 -0.002862    0.37    123.14   
    26. A(C   5,C   4,H  11)          117.58  0.003837   -0.57    117.01   
    27. A(C   3,C   4,H  11)          119.64 -0.000975    0.20    119.85   
    28. A(C   0,C   5,O   6)          122.80 -0.003082    0.44    123.24   
    29. A(C   0,C   5,C   4)          114.39  0.006116   -0.87    113.52   
    30. A(C   4,C   5,O   6)          122.81 -0.003034    0.43    123.24   
    31. D(H   9,C   1,C   0,C   5)    180.00 -0.000000    0.00    180.00   
    32. D(H   9,C   1,C   0,H   8)     -0.00 -0.000001    0.00      0.00   
    33. D(C   2,C   1,C   0,H   8)    180.00 -0.000001    0.00    180.00   
    34. D(C   2,C   1,C   0,C   5)     -0.00 -0.000001    0.00      0.00   
    35. D(F   7,C   2,C   1,C   0)    180.00 -0.000000    0.00    180.00   
    36. D(C   3,C   2,C   1,C   0)     -0.00  0.000001   -0.00     -0.00   
    37. D(C   3,C   2,C   1,H   9)   -180.00  0.000001   -0.00   -180.00   
    38. D(F   7,C   2,C   1,H   9)      0.00 -0.000000    0.00      0.00   
    39. D(H  10,C   3,C   2,F   7)      0.00  0.000001   -0.00     -0.00   
    40. D(H  10,C   3,C   2,C   1)   -180.00 -0.000000    0.00   -180.00   
    41. D(C   4,C   3,C   2,F   7)   -180.00  0.000000   -0.00   -180.00   
    42. D(C   4,C   3,C   2,C   1)      0.00 -0.000001    0.00      0.00   
    43. D(H  11,C   4,C   3,C   2)   -180.00  0.000001   -0.00   -180.00   
    44. D(C   5,C   4,C   3,H  10)   -180.00  0.000000   -0.00   -180.00   
    45. D(C   5,C   4,C   3,C   2)      0.00  0.000000   -0.00     -0.00   
    46. D(H  11,C   4,C   3,H  10)      0.00  0.000001   -0.00     -0.00   
    47. D(O   6,C   5,C   4,H  11)      0.00  0.000001   -0.00     -0.00   
    48. D(C   0,C   5,C   4,H  11)    180.00 -0.000001    0.00    180.00   
    49. D(C   0,C   5,C   4,C   3)     -0.00 -0.000000    0.00      0.00   
    50. D(O   6,C   5,C   0,H   8)     -0.00 -0.000001    0.00      0.00   
    51. D(O   6,C   5,C   0,C   1)    180.00 -0.000001    0.00    180.00   
    52. D(O   6,C   5,C   4,C   3)   -180.00  0.000001   -0.00   -180.00   
    53. D(C   4,C   5,C   0,H   8)   -180.00  0.000000   -0.00   -180.00   
    54. D(C   4,C   5,C   0,C   1)      0.00  0.000000   -0.00     -0.00   
    ----------------------------------------------------------------------------

         *************************************************************
         *                GEOMETRY OPTIMIZATION CYCLE   2            *
         *************************************************************
---------------------------------
CARTESIAN COORDINATES (ANGSTROEM)
---------------------------------
  C      1.035338    0.945789   -0.007154
  C     -0.294864    1.372445   -0.008537
  C     -1.327047    0.427997   -0.001370
  C     -1.041067   -0.941554    0.007164
  C      0.287706   -1.372552    0.008576
  C      1.421273   -0.458361    0.001504
  O      2.629683   -0.847988    0.002788
  F     -2.650306    0.854693   -0.002774
  H      1.850130    1.688951   -0.012782
  H     -0.550091    2.446038   -0.015207
  H     -1.875487   -1.663727    0.012679
  H      0.514630   -2.451732    0.015313

----------------------------
CARTESIAN COORDINATES (A.U.)
----------------------------
  NO LB      ZA    FRAG     MASS         X           Y           Z
   0 C     6.0000    0    12.011    1.956505    1.787283   -0.013518
   1 C     6.0000    0    12.011   -0.557212    2.593545   -0.016132
   2 C     6.0000    0    12.011   -2.507755    0.808796   -0.002590
   3 C     6.0000    0    12.011   -1.967331   -1.779279    0.013537
   4 C     6.0000    0    12.011    0.543686   -2.593748    0.016206
   5 C     6.0000    0    12.011    2.685817   -0.866176    0.002841
   6 O     8.0000    0    15.999    4.969381   -1.602465    0.005269
   7 F     9.0000    0    18.998   -5.008353    1.615137   -0.005242
   8 H     1.0000    0     1.008    3.496239    3.191654   -0.024154
   9 H     1.0000    0     1.008   -1.039521    4.622343   -0.028736
  10 H     1.0000    0     1.008   -3.544157   -3.143989    0.023960
  11 H     1.0000    0     1.008    0.972511   -4.633101    0.028938

--------------------------------
INTERNAL COORDINATES (ANGSTROEM)
--------------------------------
 C      0   0   0     0.000000000000     0.00000000     0.00000000
 C      1   0   0     1.396951653786     0.00000000     0.00000000
 C      2   1   0     1.399083870264   119.75726399     0.00000000
 C      3   2   1     1.399116217013   120.66493557     0.00000000
 C      4   3   2     1.396924972844   119.76529366     0.00000000
 C      1   2   3     1.456247748206   123.15155779     0.00000000
 O      6   1   2     1.269671329314   123.23902963   180.00079412
 F      3   2   1     1.390355280928   119.66827356   180.00061343
 H      1   2   3     1.102817789043   119.84827676   180.00080255
 H      2   1   3     1.103534331473   121.15592599   179.99985240
 H      4   3   2     1.103549647066   119.08187826   180.00067593
 H      5   4   3     1.102800000826   119.84551026   179.99912154

---------------------------
INTERNAL COORDINATES (A.U.)
---------------------------
 C      0   0   0     0.000000000000     0.00000000     0.00000000
 C      1   0   0     2.639856047984     0.00000000     0.00000000
 C      2   1   0     2.643885353186   119.75726399     0.00000000
 C      3   2   1     2.643946479683   120.66493557     0.00000000
 C      4   3   2     2.639805628311   119.76529366     0.00000000
 C      1   2   3     2.751909427249   123.15155779     0.00000000
 O      6   1   2     2.399331092496   123.23902963   180.00079412
 F      3   2   1     2.627390709806   119.66827356   180.00061343
 H      1   2   3     2.084023596907   119.84827676   180.00080255
 H      2   1   3     2.085377665863   121.15592599   179.99985240
 H      4   3   2     2.085406608140   119.08187826   180.00067593
 H      5   4   3     2.083989982049   119.84551026   179.99912154



           ************************************************************
           *        Program running with 8 parallel MPI-processes     *
           *              working on a common directory               *
           ************************************************************
------------------------------------------------------------------------------
                   ___                                                        
                  /   \      - P O W E R E D   B Y -                         
                 /     \                                                     
                 |  |  |   _    _      __       _____    __    __             
                 |  |  |  | |  | |    /  \     |  _  \  |  |  /  |          
                  \  \/   | |  | |   /    \    | | | |  |  | /  /          
                 / \  \   | |__| |  /  /\  \   | |_| |  |  |/  /          
                |  |  |   |  __  | /  /__\  \  |    /   |      \           
                |  |  |   | |  | | |   __   |  |    \   |  |\   \          
                \     /   | |  | | |  |  |  |  | |\  \  |  | \   \       
                 \___/    |_|  |_| |__|  |__|  |_| \__\ |__|  \__/        
                                                                              
                      - O R C A' S   B I G   F R I E N D -                    
                                      &                                       
                       - I N T E G R A L  F E E D E R -                       
                                                                              
 v1 FN, 2020, v2 2021                                                         
------------------------------------------------------------------------------


Reading SHARK input file p-fluorophenolate_opt_orca.SHARKINP.tmp ... ok
----------------------
SHARK INTEGRAL PACKAGE
----------------------

Number of atoms                             ...     12
Number of basis functions                   ...    132
Number of shells                            ...     60
Maximum angular momentum                    ...      2
Integral batch strategy                     ... SHARK/LIBINT Hybrid
RI-J (if used) integral strategy            ... SPLIT-RIJ (Revised 2003 algorithm where possible)
Printlevel                                  ...      1
Contraction scheme used                     ... SEGMENTED contraction
Coulomb Range Separation                    ... NOT USED
Exchange Range Separation                   ... NOT USED
Finite Nucleus Model                        ... NOT USED
Auxiliary Coulomb fitting basis             ... AVAILABLE
   # of basis functions in Aux-J            ...    436
   # of shells in Aux-J                     ...    140
   Maximum angular momentum in Aux-J        ...      4
Auxiliary J/K fitting basis                 ... NOT available
Auxiliary Correlation fitting basis         ... NOT available
Auxiliary 'external' fitting basis          ... NOT available
Integral threshold                          ...     2.500000e-11
Primitive cut-off                           ...     2.500000e-12
Primitive pair pre-selection threshold      ...     2.500000e-12

Calculating pre-screening integrals         ... done (  0.0 sec) Dimension = 60
Organizing shell pair data                  ... done (  0.0 sec)
Shell pair information
Total number of shell pairs                 ...      1830
Shell pairs after pre-screening             ...      1735
Total number of primitive shell pairs       ...      6902
Primitive shell pairs kept                  ...      4863
          la=0 lb=0:    493 shell pairs
          la=1 lb=0:    612 shell pairs
          la=1 lb=1:    203 shell pairs
          la=2 lb=0:    240 shell pairs
          la=2 lb=1:    153 shell pairs
          la=2 lb=2:     34 shell pairs

Calculating one electron integrals          ... done (  0.0 sec)
Calculating RI/J V-Matrix + Cholesky decomp.... done (  0.0 sec)
Calculating Nuclear repulsion               ... done (  0.0 sec) ENN=    327.270516620781 Eh

SHARK setup successfully completed in   0.1 seconds

Maximum memory used throughout the entire GTOINT-calculation: 8.9 MB


           ************************************************************
           *        Program running with 8 parallel MPI-processes     *
           *              working on a common directory               *
           ************************************************************

Diagonalization of the overlap matrix:
Smallest eigenvalue                        ... 2.963e-04
Time for diagonalization                   ...    0.002 sec
Threshold for overlap eigenvalues          ... 1.000e-08
Number of eigenvalues below threshold      ... 0
Time for construction of square roots      ...    0.001 sec
Total time needed                          ...    0.004 sec

-------------------
DFT GRID GENERATION
-------------------

General Integration Accuracy     IntAcc      ... 4.388
Radial Grid Type                 RadialGrid  ... OptM3 with GC (2021)
Angular Grid (max. ang.)         AngularGrid ... 4 (Lebedev-302)
Angular grid pruning method      GridPruning ... 4 (adaptive)
Weight generation scheme         WeightScheme... Becke
Basis function cutoff            BFCut       ... 1.0000e-11
Integration weight cutoff        WCut        ... 1.0000e-14
Angular grids for H and He will be reduced by one unit
Partially contracted basis set               ... off
Rotationally invariant grid construction     ... off

Total number of grid points                  ...    61286
Total number of batches                      ...      964
Average number of points per batch           ...       63
Average number of grid points per atom       ...     5107
Time for grid setup =    0.276 sec

--------------
SCF ITERATIONS
--------------
ITER       Energy         Delta-E        Max-DP      RMS-DP      [F,P]     Damp
               ***  Starting incremental Fock matrix formation  ***
  0   -405.8440788454   0.000000000000 0.02027638  0.00069022  0.0076684 0.7000
                      *** Initiating the SOSCF procedure ***
                      *** Re-Reading the Fockian *** 
                      *** Removing any level shift *** 
ITER      Energy       Delta-E        Grad      Rot      Max-DP    RMS-DP
  1   -405.84435479  -0.0002759400  0.000688  0.000688  0.054900  0.001872
               *** Restarting incremental Fock matrix formation ***
  2   -405.84482303  -0.0004682461  0.002056  0.006811  0.009260  0.000388
  3   -405.84451933   0.0003036965  0.005011  0.007529  0.014051  0.000370
  4   -405.84488193  -0.0003625952  0.001211  0.005787  0.007503  0.000236
  5   -405.84482703   0.0000549034  0.002232  0.004263  0.003613  0.000146
  6   -405.84489873  -0.0000717014  0.000338  0.001594  0.001720  0.000065
  7   -405.84489287   0.0000058545  0.000777  0.001264  0.000978  0.000041
  8   -405.84490051  -0.0000076322  0.000113  0.000325  0.000532  0.000021
  9   -405.84490007   0.0000004406  0.000220  0.000183  0.000326  0.000014
 10   -405.84490071  -0.0000006474  0.000004  0.000009  0.000029  0.000001
 11   -405.84490071   0.0000000027  0.000006  0.000007  0.000016  0.000000
                  ***Gradient check signals convergence***
              ***Rediagonalizing the Fockian in SOSCF/NRSCF***

               *****************************************************
               *                     SUCCESS                       *
               *           SCF CONVERGED AFTER  12 CYCLES          *
               *****************************************************

Total Energy       :         -405.84490071 Eh          -11043.60119 eV
  Last Energy change         ...   -2.0364e-09  Tolerance :   1.0000e-08
  Last MAX-Density change    ...    6.5284e-06  Tolerance :   1.0000e-07
             **** THE GBW FILE WAS UPDATED (p-fluorophenolate_opt_orca.gbw) ****
             **** DENSITY p-fluorophenolate_opt_orca.scfp WAS UPDATED ****
             **** ENERGY FILE WAS UPDATED (p-fluorophenolate_opt_orca.en.tmp) ****
             **** THE GBW FILE WAS UPDATED (p-fluorophenolate_opt_orca.gbw) ****
             **** DENSITY p-fluorophenolate_opt_orca.scfp WAS UPDATED ****
Total SCF time: 0 days 0 hours 0 min 1 sec 

Maximum memory used throughout the entire SCF-calculation: 16.8 MB


-------------------------------------------------------------------------------
                          DFT DISPERSION CORRECTION                            
                                                                               
                                 DFTD4 V2.5                                    
-------------------------------------------------------------------------------
Starting D4
-------------------------   ----------------
Dispersion correction           -0.017040164
-------------------------   ----------------


-------------------------   --------------------
FINAL SINGLE POINT ENERGY      -405.861940876416
-------------------------   --------------------



           ************************************************************
           *        Program running with 8 parallel MPI-processes     *
           *              working on a common directory               *
           ************************************************************
------------------------------------------------------------------------------
                         ORCA SCF GRADIENT CALCULATION
------------------------------------------------------------------------------

Gradient of the Kohn-Sham DFT energy:
Kohn-Sham wavefunction type      ... RKS
Hartree-Fock exchange scaling    ...    0.000
Number of operators              ...    1
Number of atoms                  ...   12
Basis set dimensions             ...  132
Integral neglect threshold       ... 2.5e-11
Integral primitive cutoff        ... 2.5e-12
SHARK Integral package           ... ON

Nuc. rep. gradient       (SHARK) ... done (  0.0 sec)
HCore & Overlap gradient (SHARK) ... done (  0.0 sec)
RI-J gradient            (SHARK) ... done (  0.1 sec)
Exchange-correlation gradient    ... done
Dispersion correction            ... Starting D4
Starting D4
Starting D4
Starting D4


------------------- 
Dispersion Gradient 
------------------- 
   1  :    0.000243077    0.000225819   -0.000001708
   2  :   -0.000106275    0.000352528   -0.000002166
   3  :   -0.000294134    0.000094863   -0.000000308
   4  :   -0.000292189   -0.000224006    0.000001746
   5  :    0.000065342   -0.000325317    0.000002032
[...]
   6   2.0000      -9.723578      -264.5920 
   7   2.0000      -9.723575      -264.5919 
   8   2.0000      -0.918982       -25.0068 
   9   2.0000      -0.677495       -18.4356 
  10   2.0000      -0.572931       -15.5902 
  11   2.0000      -0.488990       -13.3061 
  12   2.0000      -0.448160       -12.1950 
  13   2.0000      -0.367440        -9.9985 
  14   2.0000      -0.342684        -9.3249 
  15   2.0000      -0.305122        -8.3028 
  16   2.0000      -0.248370        -6.7585 
  17   2.0000      -0.228461        -6.2167 
  18   2.0000      -0.226050        -6.1511 
  19   2.0000      -0.200458        -5.4547 
  20   2.0000      -0.196979        -5.3601 
  21   2.0000      -0.169051        -4.6001 
  22   2.0000      -0.147646        -4.0177 
  23   2.0000      -0.129729        -3.5301 
  24   2.0000      -0.118775        -3.2320 
  25   2.0000      -0.083827        -2.2811 
  26   2.0000      -0.052662        -1.4330 
  27   2.0000       0.020940         0.5698 
  28   2.0000       0.031284         0.8513 
  29   0.0000       0.137119         3.7312 
  30   0.0000       0.181507         4.9391 
  31   0.0000       0.193440         5.2638 
  32   0.0000       0.223900         6.0926 
  33   0.0000       0.257056         6.9948 
  34   0.0000       0.276238         7.5168 
  35   0.0000       0.277071         7.5395 
  36   0.0000       0.298901         8.1335 
  37   0.0000       0.373463        10.1625 
  38   0.0000       0.399528        10.8717 
  39   0.0000       0.443252        12.0615 
  40   0.0000       0.450721        12.2647 
  41   0.0000       0.467202        12.7132 
  42   0.0000       0.494243        13.4490 
  43   0.0000       0.515842        14.0368 
  44   0.0000       0.544116        14.8061 
  45   0.0000       0.596963        16.2442 
  46   0.0000       0.600470        16.3396 
  47   0.0000       0.603792        16.4300 
  48   0.0000       0.637894        17.3580 
  49   0.0000       0.647499        17.6193 
  50   0.0000       0.662932        18.0393 
  51   0.0000       0.681496        18.5444 
  52   0.0000       0.696523        18.9534 
  53   0.0000       0.726214        19.7613 
  54   0.0000       0.737643        20.0723 
  55   0.0000       0.740366        20.1464 
  56   0.0000       0.741182        20.1686 
  57   0.0000       0.787286        21.4231 
  58   0.0000       0.803883        21.8748 
  59   0.0000       0.819856        22.3094 
  60   0.0000       0.820154        22.3175 
  61   0.0000       0.844263        22.9736 
  62   0.0000       0.883392        24.0383 
  63   0.0000       0.888131        24.1673 
  64   0.0000       0.888708        24.1830 
  65   0.0000       0.932898        25.3854 
  66   0.0000       0.991718        26.9860 
  67   0.0000       1.004195        27.3255 
  68   0.0000       1.071184        29.1484 
  69   0.0000       1.185429        32.2572 
  70   0.0000       1.187824        32.3223 
  71   0.0000       1.204468        32.7752 
  72   0.0000       1.263375        34.3782 
  73   0.0000       1.351984        36.7894 
  74   0.0000       1.356666        36.9168 
  75   0.0000       1.357686        36.9445 
  76   0.0000       1.357952        36.9517 
  77   0.0000       1.362942        37.0875 
  78   0.0000       1.383130        37.6369 
  79   0.0000       1.419285        38.6207 
  80   0.0000       1.544532        42.0289 
  81   0.0000       1.554642        42.3040 
  82   0.0000       1.565901        42.6103 
  83   0.0000       1.625571        44.2340 
  84   0.0000       1.673257        45.5316 
  85   0.0000       1.761623        47.9362 
  86   0.0000       1.775966        48.3265 
  87   0.0000       1.828336        49.7516 
  88   0.0000       1.832971        49.8777 
  89   0.0000       1.841648        50.1138 
  90   0.0000       1.847781        50.2807 
  91   0.0000       1.850011        50.3414 
  92   0.0000       1.902644        51.7736 
  93   0.0000       1.945664        52.9442 
  94   0.0000       1.950417        53.0735 
  95   0.0000       1.961780        53.3828 
  96   0.0000       1.980561        53.8938 
  97   0.0000       2.063245        56.1437 
  98   0.0000       2.072768        56.4029 
  99   0.0000       2.146232        58.4019 
 100   0.0000       2.150045        58.5057 
 101   0.0000       2.211278        60.1719 
 102   0.0000       2.240425        60.9651 
 103   0.0000       2.243040        61.0362 
 104   0.0000       2.303720        62.6874 
 105   0.0000       2.338510        63.6341 
 106   0.0000       2.350954        63.9727 
 107   0.0000       2.388793        65.0024 
 108   0.0000       2.427555        66.0571 
 109   0.0000       2.493957        67.8640 
 110   0.0000       2.505062        68.1662 
 111   0.0000       2.578281        70.1586 
 112   0.0000       2.656800        72.2952 
 113   0.0000       2.658436        72.3397 
 114   0.0000       2.707986        73.6881 
 115   0.0000       2.793058        76.0030 
 116   0.0000       2.830864        77.0317 
 117   0.0000       2.862430        77.8907 
 118   0.0000       2.889545        78.6285 
 119   0.0000       2.908030        79.1315 
 120   0.0000       2.950522        80.2878 
 121   0.0000       2.991910        81.4140 
 122   0.0000       3.148006        85.6616 
 123   0.0000       3.170079        86.2622 
 124   0.0000       3.214733        87.4773 
 125   0.0000       3.234693        88.0205 
 126   0.0000       3.349357        91.1406 
 127   0.0000       3.456761        94.0633 
 128   0.0000       3.469125        94.3997 
 129   0.0000       3.602733        98.0354 
 130   0.0000       3.718926       101.1971 
 131   0.0000       3.908208       106.3478 

                    ********************************
                    * MULLIKEN POPULATION ANALYSIS *
                    ********************************

-----------------------
MULLIKEN ATOMIC CHARGES
-----------------------
   0 C :   -0.143404
   1 C :   -0.056279
   2 C :    0.178573
   3 C :   -0.056486
   4 C :   -0.143215
   5 C :    0.144884
   6 O :   -0.374690
   7 F :   -0.248028
   8 H :   -0.080643
   9 H :   -0.070032
  10 H :   -0.070017
  11 H :   -0.080663
Sum of atomic charges:   -1.0000000

--------------------------------
MULLIKEN REDUCED ORBITAL CHARGES
--------------------------------
  0 C s       :     3.271561  s :     3.271561
      pz      :     1.110729  p :     2.843839
      px      :     0.781791
      py      :     0.951319
      dz2     :     0.002398  d :     0.028005
      dxz     :     0.004107
      dyz     :     0.002900
      dx2y2   :     0.008092
      dxy     :     0.010508
  1 C s       :     3.218588  s :     3.218588
      pz      :     1.080940  p :     2.805121
      px      :     0.940187
      py      :     0.783994
      dz2     :     0.002414  d :     0.032569
      dxz     :     0.008885
      dyz     :     0.002173
      dx2y2   :     0.008773
      dxy     :     0.010324
  2 C s       :     2.983739  s :     2.983739
      pz      :     1.145010  p :     2.768255
      px      :     0.671753
      py      :     0.951492
      dz2     :     0.005290  d :     0.069433
      dxz     :     0.011943
      dyz     :     0.007698
      dx2y2   :     0.023106
      dxy     :     0.021396
  3 C s       :     3.218643  s :     3.218643
      pz      :     1.080991  p :     2.805273
      px      :     0.828862
      py      :     0.895419
      dz2     :     0.002414  d :     0.032570
      dxz     :     0.004992
      dyz     :     0.006066
      dx2y2   :     0.008833
      dxy     :     0.010265
  4 C s       :     3.271522  s :     3.271522
      pz      :     1.110704  p :     2.843689
      px      :     0.889059
      py      :     0.843926
      dz2     :     0.002398  d :     0.028005
      dxz     :     0.005582
      dyz     :     0.001425
      dx2y2   :     0.010092
      dxy     :     0.008507
  5 C s       :     2.966466  s :     2.966466
      pz      :     0.924470  p :     2.801155
      px      :     0.916351
      py      :     0.960334
      dz2     :     0.004519  d :     0.087494
      dxz     :     0.020324
      dyz     :     0.005560
      dx2y2   :     0.025620
      dxy     :     0.031471
  6 O s       :     3.711343  s :     3.711343
      pz      :     1.520212  p :     4.649442
      px      :     1.376448
      py      :     1.752781
      dz2     :     0.001641  d :     0.013904
      dxz     :     0.003686
      dyz     :     0.000394
      dx2y2   :     0.004397
      dxy     :     0.003787
  7 F s       :     3.894060  s :     3.894060
      pz      :     1.916590  p :     5.347367
      px      :     1.548040
      py      :     1.882737
      dz2     :     0.000856  d :     0.006601
      dxz     :     0.001626
      dyz     :     0.000181
      dx2y2   :     0.002149
      dxy     :     0.001789
  8 H s       :     1.059085  s :     1.059085
      pz      :     0.005800  p :     0.021558
      px      :     0.008683
      py      :     0.007075
  9 H s       :     1.048418  s :     1.048418
      pz      :     0.005592  p :     0.021614
      px      :     0.004120
      py      :     0.011902
 10 H s       :     1.048404  s :     1.048404
      pz      :     0.005591  p :     0.021613
      px      :     0.008627
      py      :     0.007395
 11 H s       :     1.059104  s :     1.059104
      pz      :     0.005801  p :     0.021559
      px      :     0.004105
      py      :     0.011654


                     *******************************
                     * LOEWDIN POPULATION ANALYSIS *
                     *******************************

----------------------
LOEWDIN ATOMIC CHARGES
----------------------
   0 C :   -0.127380
   1 C :   -0.103853
   2 C :   -0.017237
   3 C :   -0.103882
   4 C :   -0.127351
   5 C :   -0.030975
   6 O :   -0.364602
   7 F :   -0.131250
   8 H :   -0.002789
   9 H :    0.006056
  10 H :    0.006057
  11 H :   -0.002793

-------------------------------
LOEWDIN REDUCED ORBITAL CHARGES
-------------------------------
  0 C s       :     2.897958  s :     2.897958
      pz      :     1.079279  p :     3.150282
      px      :     1.026714
      py      :     1.044289
      dz2     :     0.006740  d :     0.079140
      dxz     :     0.008722
      dyz     :     0.006052
      dx2y2   :     0.025689
      dxy     :     0.031938
  1 C s       :     2.876337  s :     2.876337
      pz      :     1.047971  p :     3.137888
      px      :     1.070909
      py      :     1.019008
      dz2     :     0.006310  d :     0.089629
      dxz     :     0.019948
      dyz     :     0.003993
      dx2y2   :     0.027313
      dxy     :     0.032064
  2 C s       :     2.860954  s :     2.860954
      pz      :     1.131792  p :     2.988405
      px      :     0.789195
      py      :     1.067418
      dz2     :     0.011789  d :     0.167878
      dxz     :     0.024125
      dyz     :     0.016412
      dx2y2   :     0.058583
      dxy     :     0.056969
  3 C s       :     2.876339  s :     2.876339
      pz      :     1.048003  p :     3.137915
      px      :     1.052949
      py      :     1.036964
      dz2     :     0.006310  d :     0.089628
      dxz     :     0.010905
      dyz     :     0.013036
      dx2y2   :     0.028437
      dxy     :     0.030940
  4 C s       :     2.897951  s :     2.897951
      pz      :     1.079269  p :     3.150257
      px      :     1.047389
      py      :     1.023598
      dz2     :     0.006740  d :     0.079143
      dxz     :     0.012186
      dyz     :     0.002589
      dx2y2   :     0.030793
      dxy     :     0.026836
  5 C s       :     2.859008  s :     2.859008
      pz      :     0.920877  p :     2.959714
      px      :     0.999552
      py      :     1.039285
      dz2     :     0.011202  d :     0.212253
      dxz     :     0.040774
      dyz     :     0.011353
      dx2y2   :     0.066598
      dxy     :     0.082326
  6 O s       :     3.570851  s :     3.570851
      pz      :     1.529042  p :     4.768836
      px      :     1.472645
      py      :     1.767149
      dz2     :     0.003568  d :     0.024915
      dxz     :     0.005007
      dyz     :     0.000531
      dx2y2   :     0.008807
      dxy     :     0.007001
  7 F s       :     3.742497  s :     3.742497
      pz      :     1.917328  p :     5.378169
      px      :     1.574408
      py      :     1.886433
      dz2     :     0.001434  d :     0.010583
      dxz     :     0.002554
      dyz     :     0.000278
      dx2y2   :     0.003509
      dxy     :     0.002807
  8 H s       :     0.935051  s :     0.935051
      pz      :     0.017850  p :     0.067738
      px      :     0.026042
      py      :     0.023847
  9 H s       :     0.928029  s :     0.928029
      pz      :     0.016146  p :     0.065915
      px      :     0.012842
      py      :     0.036926
 10 H s       :     0.928028  s :     0.928028
      pz      :     0.016147  p :     0.065916
      px      :     0.026827
      py      :     0.022942
 11 H s       :     0.935056  s :     0.935056
      pz      :     0.017850  p :     0.067737
      px      :     0.011864
      py      :     0.038023


                      *****************************
                      * MAYER POPULATION ANALYSIS *
                      *****************************

  NA   - Mulliken gross atomic population
  ZA   - Total nuclear charge
  QA   - Mulliken gross atomic charge
  VA   - Mayer's total valence
  BVA  - Mayer's bonded valence
  FA   - Mayer's free valence

  ATOM       NA         ZA         QA         VA         BVA        FA
  0 C      6.1434     6.0000    -0.1434     3.6891     3.6891    -0.0000
  1 C      6.0563     6.0000    -0.0563     3.7148     3.7148     0.0000
  2 C      5.8214     6.0000     0.1786     3.8511     3.8511    -0.0000
  3 C      6.0565     6.0000    -0.0565     3.7149     3.7149    -0.0000
  4 C      6.1432     6.0000    -0.1432     3.6890     3.6890    -0.0000
  5 C      5.8551     6.0000     0.1449     4.2128     4.2128    -0.0000
  6 O      8.3747     8.0000    -0.3747     2.1580     2.1580     0.0000
  7 F      9.2480     9.0000    -0.2480     1.1080     1.1080     0.0000
  8 H      1.0806     1.0000    -0.0806     0.9978     0.9978    -0.0000
  9 H      1.0700     1.0000    -0.0700     0.9800     0.9800    -0.0000
 10 H      1.0700     1.0000    -0.0700     0.9800     0.9800    -0.0000
 11 H      1.0807     1.0000    -0.0807     0.9978     0.9978    -0.0000

  Mayer bond orders larger than 0.100000
B(  0-C ,  1-C ) :   1.3550 B(  0-C ,  5-C ) :   1.1405 B(  0-C ,  8-H ) :   0.9520 
B(  1-C ,  2-C ) :   1.3309 B(  1-C ,  9-H ) :   0.9602 B(  2-C ,  3-C ) :   1.3310 
B(  2-C ,  7-F ) :   1.0119 B(  3-C ,  4-C ) :   1.3550 B(  3-C , 10-H ) :   0.9602 
B(  4-C ,  5-C ) :   1.1405 B(  4-C , 11-H ) :   0.9520 B(  5-C ,  6-O ) :   1.8721 



------------------
HIRSHFELD ANALYSIS
------------------

Total integrated alpha density =     29.000004854
Total integrated beta density  =     29.000004854

  ATOM     CHARGE      SPIN    
   0 C   -0.112626    0.000000
   1 C   -0.103368    0.000000
   2 C    0.009714    0.000000
   3 C   -0.103383    0.000000
   4 C   -0.112597    0.000000
   5 C    0.035989    0.000000
   6 O   -0.444102    0.000000
   7 F   -0.167235    0.000000
   8 H   -0.005644    0.000000
   9 H    0.004442    0.000000
  10 H    0.004432    0.000000
  11 H   -0.005631    0.000000

  TOTAL  -1.000010    0.000000

-------
TIMINGS
-------

Total SCF time: 0 days 0 hours 0 min 1 sec 

Total time                  ....       1.072 sec
Sum of individual times     ....       0.994 sec  ( 92.8%)

Fock matrix formation       ....       0.615 sec  ( 57.4%)
  Split-RI-J                ....       0.206 sec  ( 33.4% of F)
  XC integration            ....       0.406 sec  ( 65.9% of F)
    Basis function eval.    ....       0.150 sec  ( 37.0% of XC)
    Density eval.           ....       0.089 sec  ( 21.9% of XC)
    XC-Functional eval.     ....       0.046 sec  ( 11.3% of XC)
    XC-Potential eval.      ....       0.062 sec  ( 15.3% of XC)
Diagonalization             ....       0.004 sec  (  0.3%)
Density matrix formation    ....       0.002 sec  (  0.2%)
Population analysis         ....       0.073 sec  (  6.8%)
Initial guess               ....       0.004 sec  (  0.4%)
Orbital Transformation      ....       0.000 sec  (  0.0%)
Orbital Orthonormalization  ....       0.002 sec  (  0.2%)
DIIS solution               ....       0.002 sec  (  0.2%)
SOSCF solution              ....       0.018 sec  (  1.7%)
Grid generation             ....       0.276 sec  ( 25.8%)

Maximum memory used throughout the entire SCF-calculation: 16.8 MB


-------------------------------------------------------------------------------
                          DFT DISPERSION CORRECTION                            
                                                                               
                                 DFTD4 V2.5                                    
-------------------------------------------------------------------------------
The BP86 functional is recognized
Active option DFTDOPT                   ...         5   

Starting D4
-------------------------   ----------------
Dispersion correction           -0.017003727
-------------------------   ----------------


-------------------------   --------------------
FINAL SINGLE POINT ENERGY      -405.862193845293
-------------------------   --------------------

                                *** OPTIMIZATION RUN DONE ***

                            ***************************************
                            *     ORCA property calculations      *
                            ***************************************

                                    ---------------------
                                    Active property flags
                                    ---------------------
   (+) Dipole Moment


------------------------------------------------------------------------------
                       ORCA ELECTRIC PROPERTIES CALCULATION
------------------------------------------------------------------------------

Dipole Moment Calculation                       ... on
Quadrupole Moment Calculation                   ... off
Polarizability Calculation                      ... off
GBWName                                         ... p-fluorophenolate_opt_orca.gbw
Electron density                                ... p-fluorophenolate_opt_orca.scfp
The origin for moment calculation is the CENTER OF MASS  = (-0.124969,  0.040324 -0.000105)

-------------
DIPOLE MOMENT
-------------
                                X             Y             Z
Electronic contribution:     -4.30767       1.38935      -0.00461
Nuclear contribution   :      2.62861      -0.84791       0.00281
                        -----------------------------------------
Total Dipole Moment    :     -1.67906       0.54144      -0.00180
                        -----------------------------------------
Magnitude (a.u.)       :      1.76420
Magnitude (Debye)      :      4.48423



--------------------
Rotational spectrum 
--------------------
 
Rotational constants in cm-1:     0.186805     0.047990     0.038181 
Rotational constants in MHz :  5600.276146  1438.711642  1144.650728 

 Dipole components along the rotational axes: 
x,y,z [a.u.] :    -1.764196    -0.000072    -0.000032 
x,y,z [Debye]:    -4.484229    -0.000183    -0.000082 

 

Timings for individual modules:

Sum of individual times         ...       31.742 sec (=   0.529 min)
GTO integral calculation        ...        7.706 sec (=   0.128 min)  24.3 %
SCF iterations                  ...       15.328 sec (=   0.255 min)  48.3 %
SCF Gradient evaluation         ...        8.595 sec (=   0.143 min)  27.1 %
Geometry relaxation             ...        0.112 sec (=   0.002 min)   0.4 %
                             ****ORCA TERMINATED NORMALLY****
TOTAL RUN TIME: 0 days 0 hours 0 minutes 38 seconds 34 msec
