      -----------------------------------------------------------      
     |                   =====================                   |     
     |                           x T B                           |     
     |                   =====================                   |     
     |                         S. Grimme                         |     
     |          Mulliken Center for Theoretical Chemistry        |     
     |                    University of Bonn                     |     
      -----------------------------------------------------------      

   * xtb version 6.4.1 (bd6e46d) compiled by 'conda@4901f00b25ba' on 2021-06-10

   xtb is free software: you can redistribute it and/or modify it under
   the terms of the GNU Lesser General Public License as published by
   the Free Software Foundation, either version 3 of the License, or
   (at your option) any later version.
   
   xtb is distributed in the hope that it will be useful,
   but WITHOUT ANY WARRANTY; without even the implied warranty of
   MERCHANTABILITY or FITNESS FOR A PARTICULAR PURPOSE.  See the
   GNU Lesser General Public License for more details.
   
   Cite this work as:
   * C. Bannwarth, E. Caldeweyher, S. Ehlert, A. Hansen, P. Pracht,
     J. Seibert, S. Spicher, S. Grimme, WIREs Comput. Mol. Sci., 2020, 11,
     e01493. DOI: 10.1002/wcms.1493
   
   for GFN2-xTB:
   * C. Bannwarth, S. Ehlert and S. Grimme., J. Chem. Theory Comput., 2019,
     15, 1652-1671. DOI: 10.1021/acs.jctc.8b01176
   for GFN1-xTB:
   * S. Grimme, C. Bannwarth, P. Shushkov, J. Chem. Theory Comput., 2017,
     13, 1989-2009. DOI: 10.1021/acs.jctc.7b00118
   for GFN0-xTB:
   * P. Pracht, E. Caldeweyher, S. Ehlert, S. Grimme, ChemRxiv, 2019, preprint.
     DOI: 10.26434/chemrxiv.8326202.v1
   for GFN-FF:
   * S. Spicher and S. Grimme, Angew. Chem. Int. Ed., 2020, 59, 15665-15673.
     DOI: 10.1002/anie.202004239
   
   for DFT-D4:
   * E. Caldeweyher, C. Bannwarth and S. Grimme, J. Chem. Phys., 2017,
     147, 034112. DOI: 10.1063/1.4993215
   * E. Caldeweyher, S. Ehlert, A. Hansen, H. Neugebauer, S. Spicher,
     C. Bannwarth and S. Grimme, J. Chem. Phys., 2019, 150, 154122.
     DOI: 10.1063/1.5090222
   * E. Caldeweyher, J.-M. Mewes, S. Ehlert and S. Grimme, Phys. Chem. Chem. Phys.
     2020, 22, 8499-8512. DOI: 10.1039/D0CP00502A
   
   for sTDA-xTB:
   * S. Grimme and C. Bannwarth, J. Chem. Phys., 2016, 145, 054103.
     DOI: 10.1063/1.4959605
   
   in the mass-spec context:
   * V. Asgeirsson, C. Bauer and S. Grimme, Chem. Sci., 2017, 8, 4879.
     DOI: 10.1039/c7sc00601b
   * J. Koopman and S. Grimme, ACS Omega 2019, 4, 12, 15120-15133.
     DOI: 10.1021/acsomega.9b02011
   
   for metadynamics refer to:
   * S. Grimme, J. Chem. Theory Comput., 2019, 155, 2847-2862
     DOI: 10.1021/acs.jctc.9b00143
   
   for SPH calculations refer to:
   * S. Spicher and S. Grimme, J. Chem. Theory Comput., 2021, 17, 1701-1714
     DOI: 10.1021/acs.jctc.0c01306
   
   with help from (in alphabetical order)
   P. Atkinson, C. Bannwarth, F. Bohle, G. Brandenburg, E. Caldeweyher
   M. Checinski, S. Dohm, S. Ehlert, S. Ehrlich, I. Gerasimov, J. Koopman
   C. Lavigne, S. Lehtola, F. März, M. Müller, F. Musil, H. Neugebauer
   J. Pisarek, C. Plett, P. Pracht, J. Seibert, P. Shushkov, S. Spicher
   M. Stahn, M. Steiner, T. Strunk, J. Stückrath, T. Rose, and J. Unsleber
   
 * started run on 2022/03/19 at 15:14:14.233     

           -------------------------------------------------
          |                Calculation Setup                |
           -------------------------------------------------

          program call               : /jet/home/maihfly/.conda/envs/Cyclodextrins-Env/bin/xtb p-fluorophenolate_opt_xtb.xyz --chrg -1 --uhf 0 --opt
          hostname                   : l011
          coordinate file            : p-fluorophenolate_opt_xtb.xyz
          omp threads                :                     8
          number of atoms            :                    12
          number of electrons        :                    42
          charge                     :                    -1
          spin                       :                   0.0
          first test random number   :      0.08265825623150

   ID    Z sym.   atoms
    1    6 C      1-6
    2    8 O      7
    3    9 F      8
    4    1 H      9-12

           -------------------------------------------------
          |                 G F N 2 - x T B                 |
           -------------------------------------------------

        Reference                      10.1021/acs.jctc.8b01176
      * Hamiltonian:
        H0-scaling (s, p, d)           1.850000    2.230000    2.230000
        zeta-weighting                 0.500000
      * Dispersion:
        s8                             2.700000
        a1                             0.520000
        a2                             5.000000
        s9                             5.000000
      * Repulsion:
        kExp                           1.500000    1.000000
        rExp                           1.000000
      * Coulomb:
        alpha                          2.000000
        third order                    shell-resolved
        anisotropic                    true
        a3                             3.000000
        a5                             4.000000
        cn-shift                       1.200000
        cn-exp                         4.000000
        max-rad                        5.000000


          ...................................................
          :                      SETUP                      :
          :.................................................:
          :  # basis functions                  36          :
          :  # atomic orbitals                  36          :
          :  # shells                           20          :
          :  # electrons                        42          :
          :  max. iterations                   250          :
          :  Hamiltonian                  GFN2-xTB          :
          :  restarted?                      false          :
          :  GBSA solvation                  false          :
          :  PC potential                    false          :
          :  electronic temp.          300.0000000     K    :
          :  accuracy                    1.0000000          :
          :  -> integral cutoff          0.2500000E+02      :
          :  -> integral neglect         0.1000000E-07      :
          :  -> SCF convergence          0.1000000E-05 Eh   :
          :  -> wf. convergence          0.1000000E-03 e    :
          :  Broyden damping             0.4000000          :
          ...................................................

 iter      E             dE          RMSdq      gap      omega  full diag
   1    -24.0672158 -0.240672E+02  0.549E+00    3.91       0.0  T
   2    -24.1615268 -0.943110E-01  0.288E+00    2.32       1.0  T
   3    -24.1657197 -0.419294E-02  0.164E+00    2.74       1.0  T
   4    -24.1723597 -0.663996E-02  0.650E-01    2.46       1.0  T
   5    -24.1750507 -0.269099E-02  0.114E-01    2.57       1.0  T
   6    -24.1751026 -0.519390E-04  0.628E-02    2.58       1.0  T
   7    -24.1751117 -0.912812E-05  0.288E-02    2.58       1.0  T
   8    -24.1751122 -0.501989E-06  0.577E-03    2.58       5.0  T
   9    -24.1751124 -0.148797E-06  0.322E-03    2.58       9.0  T
  10    -24.1751124 -0.354162E-07  0.124E-03    2.58      23.2  T
  11    -24.1751124 -0.632471E-08  0.608E-04    2.58      47.5  T
  12    -24.1751124 -0.124766E-08  0.199E-04    2.58     144.8  T

   *** convergence criteria satisfied after 12 iterations ***

         #    Occupation            Energy/Eh            Energy/eV
      -------------------------------------------------------------
         1        2.0000           -0.6593363             -17.9415
       ...           ...                  ...                  ...
        15        2.0000           -0.3042283              -8.2785
        16        2.0000           -0.2613755              -7.1124
        17        2.0000           -0.2502986              -6.8110
        18        2.0000           -0.2462628              -6.7012
        19        2.0000           -0.2392370              -6.5100
        20        2.0000           -0.1547835              -4.2119
        21        2.0000           -0.1501779              -4.0865 (HOMO)
        22                         -0.0553850              -1.5071 (LUMO)
        23                         -0.0270389              -0.7358
        24                          0.0926910               2.5222
        25                          0.2127964               5.7905
        26                          0.2768165               7.5326
       ...                                ...                  ...
        36                          0.8496315              23.1196
      -------------------------------------------------------------
                  HL-Gap            0.0947929 Eh            2.5794 eV
             Fermi-level           -0.1027814 Eh           -2.7968 eV

 SCC (total)                   0 d,  0 h,  0 min,  0.008 sec
 SCC setup                      ...        0 min,  0.000 sec (  1.310%)
 Dispersion                     ...        0 min,  0.000 sec (  0.862%)
 classical contributions        ...        0 min,  0.000 sec (  0.448%)
 integral evaluation            ...        0 min,  0.000 sec (  4.485%)
 iterations                     ...        0 min,  0.006 sec ( 83.110%)
 molecular gradient             ...        0 min,  0.001 sec (  8.524%)
 printout                       ...        0 min,  0.000 sec (  1.102%)

         :::::::::::::::::::::::::::::::::::::::::::::::::::::
         ::                     SUMMARY                     ::
         :::::::::::::::::::::::::::::::::::::::::::::::::::::
         :: total energy             -23.870327710994 Eh    ::
         :: gradient norm              0.165757396060 Eh/a0 ::
         :: HOMO-LUMO gap              2.579447124302 eV    ::
         ::.................................................::
         :: SCC energy               -24.175112436848 Eh    ::
         :: -> isotropic ES            0.171955518019 Eh    ::
         :: -> anisotropic ES          0.010670129653 Eh    ::
         :: -> anisotropic XC          0.001721608359 Eh    ::
         :: -> dispersion             -0.009821688926 Eh    ::
         :: repulsion energy           0.304775592804 Eh    ::
         :: add. restraining           0.000000000000 Eh    ::
         :: total charge              -1.000000000000 e     ::
         :::::::::::::::::::::::::::::::::::::::::::::::::::::

      ----------------------------------------------------------- 
     |                   =====================                   |
     |                        A N C O P T                        |
     |                   =====================                   |
     |               Approximate Normal Coordinate               |
     |                Rational Function Optimizer                |
      ----------------------------------------------------------- 

          ...................................................
          :                      SETUP                      :
          :.................................................:
          :   optimization level            normal          :
          :   max. optcycles                   200          :
          :   ANC micro-cycles                  20          :
          :   degrees of freedom                30          :
          :.................................................:
          :   RF solver                   davidson          :
          :   write xtbopt.log                true          :
          :   linear?                        false          :
          :   energy convergence         0.5000000E-05 Eh   :
          :   grad. convergence          0.1000000E-02 Eh/α :
          :   maximium RF displ.         1.0000000          :
          :   Hlow (freq-cutoff)         0.1000000E-01      :
          :   Hmax (freq-cutoff)         5.0000000          :
          :   S6 in model hess.         20.0000000          :
          ...................................................

generating ANC from model Hessian ...
Using Lindh-Hessian (1995)
 Shifting diagonal of input Hessian by    0.0000000000000000     
 Lowest  eigenvalues of input Hessian
    0.000000    0.000000    0.000000    0.000000    0.000000    0.000000
    0.013975    0.016336    0.024365    0.027468    0.069871    0.076753
    0.090148    0.096911    0.102031    0.103693    0.111792    0.132965
 Highest eigenvalues
    1.478712    1.644146    1.787553    1.935552    2.032617    2.158976


........................................................................
.............................. CYCLE    1 ..............................
........................................................................
   1    -24.1751124 -0.241751E+02  0.397E-05    2.58       0.0  T
   2    -24.1751124 -0.679279E-11  0.242E-05    2.58    1193.2  T
   3    -24.1751124 -0.276401E-11  0.141E-05    2.58    2052.0  T
     SCC iter.                  ...        0 min,  0.002 sec
     gradient                   ...        0 min,  0.001 sec
 * total energy  :   -23.8703277 Eh     change       -0.1268710E-09 Eh
   gradient norm :     0.1657589 Eh/α   predicted     0.0000000E+00 (-100.00%)
   displ. norm   :     0.1211284 α      lambda       -0.1760612E-01
   maximum displ.:     0.0633155 α      in ANC's #27, #24, #21, ...

........................................................................
.............................. CYCLE    2 ..............................
........................................................................
   1    -24.1781482 -0.241781E+02  0.498E-01    2.49       0.0  T
   2    -24.1807158 -0.256763E-02  0.320E-01    2.98       1.0  T
   3    -24.1813302 -0.614342E-03  0.128E-01    2.94       1.0  T
   4    -24.1813200  0.101375E-04  0.756E-02    2.93       1.0  T
   5    -24.1813383 -0.182306E-04  0.175E-02    2.93       1.7  T
   6    -24.1813392 -0.968193E-06  0.764E-03    2.93       3.8  T
   7    -24.1813396 -0.398713E-06  0.182E-03    2.93      15.8  T
   8    -24.1813396 -0.993758E-09  0.764E-04    2.93      37.8  T
   9    -24.1813396 -0.349232E-08  0.255E-04    2.93     113.2  T
     SCC iter.                  ...        0 min,  0.004 sec
     gradient                   ...        0 min,  0.001 sec
 * total energy  :   -23.8837307 Eh     change       -0.1340299E-01 Eh
   gradient norm :     0.0863051 Eh/α   predicted    -0.8932212E-02 ( -33.36%)
   displ. norm   :     0.1201720 α      lambda       -0.9238232E-02
   maximum displ.:     0.0711552 α      in ANC's #27, #24, #21, ...

........................................................................
.............................. CYCLE    3 ..............................
........................................................................
   1    -24.1846514 -0.241847E+02  0.591E-01    2.84       0.0  T
   2    -24.1880353 -0.338393E-02  0.340E-01    3.13       1.0  T
   3    -24.1887112 -0.675862E-03  0.143E-01    3.11       1.0  T
   4    -24.1887054  0.575253E-05  0.810E-02    3.10       1.0  T
   5    -24.1887211 -0.156755E-04  0.209E-02    3.11       1.4  T
   6    -24.1887229 -0.179573E-05  0.824E-03    3.11       3.5  T
   7    -24.1887234 -0.505786E-06  0.159E-03    3.11      18.1  T
   8    -24.1887234 -0.855068E-08  0.780E-04    3.11      37.0  T
   9    -24.1887234 -0.124703E-08  0.208E-04    3.11     138.5  T
     SCC iter.                  ...        0 min,  0.004 sec
     gradient                   ...        0 min,  0.001 sec
 * total energy  :   -23.8870078 Eh     change       -0.3277098E-02 Eh
   gradient norm :     0.0390881 Eh/α   predicted    -0.4685823E-02 (  42.99%)
   displ. norm   :     0.0477439 α      lambda       -0.1495825E-02
   maximum displ.:     0.0228568 α      in ANC's #13, #21, #16, ...

........................................................................
.............................. CYCLE    4 ..............................
........................................................................
   1    -24.1839217 -0.241839E+02  0.166E-01    3.15       0.0  T
   2    -24.1842242 -0.302503E-03  0.123E-01    3.08       1.0  T
   3    -24.1843053 -0.810378E-04  0.541E-02    3.09       1.0  T
   4    -24.1843031  0.217462E-05  0.287E-02    3.09       1.0  T
   5    -24.1843064 -0.329691E-05  0.619E-03    3.09       4.7  T
   6    -24.1843066 -0.224960E-06  0.279E-03    3.09      10.4  T
   7    -24.1843067 -0.360613E-07  0.106E-03    3.09      27.4  T
   8    -24.1843067 -0.114295E-08  0.535E-04    3.09      54.0  T
   9    -24.1843067 -0.781519E-09  0.148E-04    3.09     194.7  T
     SCC iter.                  ...        0 min,  0.004 sec
     gradient                   ...        0 min,  0.001 sec
 * total energy  :   -23.8876927 Eh     change       -0.6849067E-03 Eh
   gradient norm :     0.0068862 Eh/α   predicted    -0.7496175E-03 (   9.45%)
   displ. norm   :     0.0133989 α      lambda       -0.5161143E-04
   maximum displ.:     0.0086628 α      in ANC's #8, #13, #27, ...

........................................................................
.............................. CYCLE    5 ..............................
........................................................................
   1    -24.1846073 -0.241846E+02  0.366E-02    3.09       0.0  T
   2    -24.1846119 -0.466024E-05  0.202E-02    3.10       1.4  T
   3    -24.1846131 -0.118611E-05  0.114E-02    3.10       2.5  T
   4    -24.1846132 -0.135117E-06  0.340E-03    3.10       8.5  T
   5    -24.1846133 -0.476582E-07  0.915E-04    3.10      31.5  T
   6    -24.1846133 -0.497129E-08  0.342E-04    3.10      84.5  T
     SCC iter.                  ...        0 min,  0.003 sec
     gradient                   ...        0 min,  0.001 sec
 * total energy  :   -23.8877272 Eh     change       -0.3446104E-04 Eh
   gradient norm :     0.0023041 Eh/α   predicted    -0.2581129E-04 ( -25.10%)
   displ. norm   :     0.0098455 α      lambda       -0.1210704E-04
   maximum displ.:     0.0070784 α      in ANC's #8, #13, #7, ...

........................................................................
.............................. CYCLE    6 ..............................
........................................................................
   1    -24.1848224 -0.241848E+02  0.180E-02    3.10       0.0  T
   2    -24.1848229 -0.515511E-06  0.108E-02    3.10       2.7  T
   3    -24.1848230 -0.960330E-07  0.607E-03    3.10       4.8  T
   4    -24.1848231 -0.109276E-06  0.136E-03    3.10      21.3  T
   5    -24.1848231 -0.872851E-08  0.517E-04    3.10      55.9  T
   6    -24.1848231 -0.215034E-08  0.135E-04    3.10     213.8  T
     SCC iter.                  ...        0 min,  0.003 sec
     gradient                   ...        0 min,  0.001 sec
 * total energy  :   -23.8877339 Eh     change       -0.6745429E-05 Eh
   gradient norm :     0.0007816 Eh/α   predicted    -0.6055046E-05 ( -10.23%)
   displ. norm   :     0.0036636 α      lambda       -0.7537601E-06
   maximum displ.:     0.0024010 α      in ANC's #8, #7, #13, ...

........................................................................
.............................. CYCLE    7 ..............................
........................................................................
   1    -24.1848644 -0.241849E+02  0.457E-03    3.10       0.0  T
   2    -24.1848644 -0.615251E-07  0.281E-03    3.10      10.3  T
   3    -24.1848644 -0.888601E-08  0.160E-03    3.10      18.1  T
   4    -24.1848644 -0.161416E-08  0.542E-04    3.10      53.2  T
   5    -24.1848644 -0.236634E-08  0.100E-04    3.10     288.5  T
     SCC iter.                  ...        0 min,  0.002 sec
     gradient                   ...        0 min,  0.001 sec
 * total energy  :   -23.8877345 Eh     change       -0.5641917E-06 Eh
   gradient norm :     0.0002610 Eh/α   predicted    -0.3781179E-06 ( -32.98%)
   displ. norm   :     0.0007596 α      lambda       -0.7578019E-07
   maximum displ.:     0.0004614 α      in ANC's #13, #7, #12, ...

   *** GEOMETRY OPTIMIZATION CONVERGED AFTER 7 ITERATIONS ***

------------------------------------------------------------------------
 total energy gain   :        -0.0174068 Eh      -10.9229 kcal/mol
 total RMSD          :         0.0653557 a0        0.0346 Å
 total power (kW/mol):        -6.5287778 (step)-1533.2514 (real)
------------------------------------------------------------------------

 ANCopt (total)                0 d,  0 h,  0 min,  0.030 sec
 optimizer setup                ...        0 min,  0.000 sec (  0.185%)
 model hessian                  ...        0 min,  0.001 sec (  2.808%)
 ANC generation                 ...        0 min,  0.000 sec (  0.972%)
 coordinate transformation      ...        0 min,  0.000 sec (  0.065%)
 single point calculation       ...        0 min,  0.028 sec ( 92.412%)
 optimization log               ...        0 min,  0.000 sec (  1.023%)
 hessian update                 ...        0 min,  0.000 sec (  0.240%)
 rational function              ...        0 min,  0.000 sec (  1.361%)

================
 final structure:
================
12
 xtb: 6.4.1 (bd6e46d)
C         1.02265695072775    0.93639607499304   -0.00707640708658
C        -0.28475183536013    1.35757584218859   -0.00845156072927
C        -1.30189577030411    0.41992426553043   -0.00135462559669
C        -1.02415322216721   -0.93535552204266    0.00710695680404
C         0.28287742447479   -1.35758917082376    0.00848921906371
C         1.39215047745416   -0.44897591665244    0.00148910964140
O         2.58982208943002   -0.83505881466670    0.00273522650448
F        -2.62609355245044    0.84686212245962   -0.00274956676971
H         1.82178302853580    1.66868474908092   -0.01262589266177
H        -0.53321296934777    2.41333065483849   -0.01500991488273
H        -1.84269632515473   -1.64706590376781    0.01254053517380
H         0.50341370416187   -2.41872838113771    0.01510692053933

 Bond Distances (Angstroems)
 ---------------------------
C1-C2=1.3736         C1-C6=1.4338         C1-H9=1.0839         C2-C1=1.3736         C2-C3=1.3834         C2-H10=1.0846        
C3-C2=1.3834         C3-C4=1.3835         C3-F8=1.3913         C4-C3=1.3835         C4-C5=1.3735         C4-H11=1.0847        
C5-C4=1.3735         C5-C6=1.4339         C5-H12=1.0838        C6-C1=1.4338         C6-C5=1.4339         C6-O7=1.2584         
O7-C6=1.2584         F8-C3=1.3913         H9-C1=1.0839         H10-C2=1.0846        H11-C4=1.0847        H12-C5=1.0838        
 C  H  Rav=1.0843 sigma=0.0004  Rmin=1.0838  Rmax=1.0847     4
 C  C  Rav=1.3970 sigma=0.0264  Rmin=1.3735  Rmax=1.4339     6
 O  C  Rav=1.2584 sigma=0.0000  Rmin=1.2584  Rmax=1.2584     1
 F  C  Rav=1.3913 sigma=0.0000  Rmin=1.3913  Rmax=1.3913     1

 selected bond angles (degree)
 --------------------
C6-C1-C2=122.79                H9-C1-C2=119.64                H9-C1-C6=117.57                C3-C2-C1=119.47                
H10-C2-C1=121.10               H10-C2-C3=119.43               C4-C3-C2=121.09                F8-C3-C2=119.46                
F8-C3-C4=119.45                C5-C4-C3=119.48                H11-C4-C3=119.43               H11-C4-C5=121.09               
C6-C5-C4=122.78                H12-C5-C4=119.64               H12-C5-C6=117.58               C5-C6-C1=114.39                
O7-C6-C1=122.80                O7-C6-C5=122.81                

 selected dihedral angles (degree)
 ---------------------------------
C3-C2-C1-C6=  0.00            C3-C2-C1-H9=180.00            H10-C2-C1-C6=180.00           H10-C2-C1-H9=  0.00           
C4-C3-C2-C1=  0.00            C4-C3-C2-H10=180.00           F8-C3-C2-C1=180.00            F8-C3-C2-H10=  0.00           
C5-C4-C3-C2=  0.00            C5-C4-C3-F8=180.00            H11-C4-C3-C2=180.00           H11-C4-C3-F8=  0.00           
C6-C5-C4-C3=  0.00            C6-C5-C4-H11=180.00           H12-C5-C4-C3=180.00           H12-C5-C4-H11=  0.00          
C5-C6-C1-C2=  0.00            C5-C6-C1-H9=180.00            O7-C6-C1-C2=180.00            O7-C6-C1-H9=  0.00            
C1-C6-C5-C4=  0.00            C1-C6-C5-H12=180.00           O7-C6-C5-C4=180.00            O7-C6-C5-H12=  0.00           
           -------------------------------------------------
          |                Final Singlepoint                |
           -------------------------------------------------

          ...................................................
          :                      SETUP                      :
          :.................................................:
          :  # basis functions                  36          :
          :  # atomic orbitals                  36          :
          :  # shells                           20          :
          :  # electrons                        42          :
          :  max. iterations                   250          :
          :  Hamiltonian                  GFN2-xTB          :
          :  restarted?                      false          :
          :  GBSA solvation                  false          :
          :  PC potential                    false          :
          :  electronic temp.          300.0000000     K    :
          :  accuracy                    1.0000000          :
          :  -> integral cutoff          0.2500000E+02      :
          :  -> integral neglect         0.1000000E-07      :
          :  -> SCF convergence          0.1000000E-05 Eh   :
          :  -> wf. convergence          0.1000000E-03 e    :
          :  Broyden damping             0.4000000          :
          ...................................................

 iter      E             dE          RMSdq      gap      omega  full diag
   1    -24.1848644 -0.241849E+02  0.586E-05    3.10       0.0  T
   2    -24.1848644 -0.838440E-11  0.320E-05    3.10     901.9  T
   3    -24.1848644 -0.753531E-11  0.175E-05    3.10    1650.7  T

   *** convergence criteria satisfied after 3 iterations ***

         #    Occupation            Energy/Eh            Energy/eV
      -------------------------------------------------------------
         1        2.0000           -0.6421270             -17.4732
       ...           ...                  ...                  ...
        15        2.0000           -0.3032504              -8.2519
        16        2.0000           -0.2672125              -7.2712
        17        2.0000           -0.2615551              -7.1173
        18        2.0000           -0.2594732              -7.0606
        19        2.0000           -0.2318670              -6.3094
        20        2.0000           -0.1678379              -4.5671
        21        2.0000           -0.1613776              -4.3913 (HOMO)
        22                         -0.0473378              -1.2881 (LUMO)
        23                         -0.0168333              -0.4581
        24                          0.0947795               2.5791
        25                          0.1825340               4.9670
        26                          0.2836523               7.7186
       ...                                ...                  ...
        36                          0.8666531              23.5828
      -------------------------------------------------------------
                  HL-Gap            0.1140398 Eh            3.1032 eV
             Fermi-level           -0.1043577 Eh           -2.8397 eV

 SCC (total)                   0 d,  0 h,  0 min,  0.002 sec
 SCC setup                      ...        0 min,  0.000 sec (  2.234%)
 Dispersion                     ...        0 min,  0.000 sec (  2.185%)
 classical contributions        ...        0 min,  0.000 sec (  0.456%)
 integral evaluation            ...        0 min,  0.000 sec ( 10.936%)
 iterations                     ...        0 min,  0.001 sec ( 56.614%)
 molecular gradient             ...        0 min,  0.001 sec ( 24.217%)
 printout                       ...        0 min,  0.000 sec (  2.867%)

         :::::::::::::::::::::::::::::::::::::::::::::::::::::
         ::                     SUMMARY                     ::
         :::::::::::::::::::::::::::::::::::::::::::::::::::::
         :: total energy             -23.887734472101 Eh    ::
         :: gradient norm              0.000261619776 Eh/a0 ::
         :: HOMO-LUMO gap              3.103181083937 eV    ::
         ::.................................................::
         :: SCC energy               -24.184864426822 Eh    ::
         :: -> isotropic ES            0.158184785288 Eh    ::
         :: -> anisotropic ES          0.010997244552 Eh    ::
         :: -> anisotropic XC          0.001606140048 Eh    ::
         :: -> dispersion             -0.009861715163 Eh    ::
         :: repulsion energy           0.297120496719 Eh    ::
         :: add. restraining           0.000000000000 Eh    ::
         :: total charge              -1.000000000000 e     ::
         :::::::::::::::::::::::::::::::::::::::::::::::::::::

           -------------------------------------------------
          |                Property Printout                |
           -------------------------------------------------

    * Orbital Energies and Occupations

         #    Occupation            Energy/Eh            Energy/eV
      -------------------------------------------------------------
         1        2.0000           -0.6421270             -17.4732
       ...           ...                  ...                  ...
         9        2.0000           -0.3518356              -9.5739
        10        2.0000           -0.3469883              -9.4420
        11        2.0000           -0.3376990              -9.1893
        12        2.0000           -0.3141790              -8.5492
        13        2.0000           -0.3078482              -8.3770
        14        2.0000           -0.3057920              -8.3210
        15        2.0000           -0.3032504              -8.2519
        16        2.0000           -0.2672125              -7.2712
        17        2.0000           -0.2615551              -7.1173
        18        2.0000           -0.2594732              -7.0606
        19        2.0000           -0.2318670              -6.3094
        20        2.0000           -0.1678379              -4.5671
        21        2.0000           -0.1613776              -4.3913 (HOMO)
        22                         -0.0473378              -1.2881 (LUMO)
        23                         -0.0168333              -0.4581
        24                          0.0947795               2.5791
        25                          0.1825340               4.9670
        26                          0.2836523               7.7186
        27                          0.3181094               8.6562
        28                          0.3290268               8.9533
        29                          0.3727756              10.1437
        30                          0.4121445              11.2150
        31                          0.5539755              15.0744
        32                          0.6067855              16.5115
       ...                                ...                  ...
        36                          0.8666531              23.5828
      -------------------------------------------------------------
                  HL-Gap            0.1140398 Eh            3.1032 eV
             Fermi-level           -0.1043577 Eh           -2.8397 eV

     #   Z          covCN         q      C6AA      α(0)
     1   6 C        2.922    -0.100    30.528     9.061
     2   6 C        2.908    -0.066    29.637     8.927
     3   6 C        2.785     0.102    25.723     8.308
     4   6 C        2.908    -0.066    29.637     8.927
     5   6 C        2.922    -0.100    30.528     9.061
     6   6 C        2.828     0.180    24.129     8.049
     7   8 O        0.857    -0.601    26.141     6.855
     8   9 F        0.783    -0.312    12.459     4.169
     9   1 H        0.925    -0.009     3.222     2.807
    10   1 H        0.925    -0.010     3.230     2.810
    11   1 H        0.925    -0.010     3.230     2.811
    12   1 H        0.925    -0.009     3.222     2.807

 Mol. C6AA /au·bohr⁶  :       2262.127496
 Mol. C8AA /au·bohr⁸  :      54482.897289
 Mol. α(0) /au        :         74.590568


Wiberg/Mayer (AO) data.
largest (>0.10) Wiberg bond orders for each atom

 ---------------------------------------------------------------------------
     #   Z sym  total        # sym  WBO       # sym  WBO       # sym  WBO
 ---------------------------------------------------------------------------
     1   6 C    3.976 --     2 C    1.506     6 C    1.202     9 H    0.972
                             7 O    0.107
     2   6 C    3.986 --     1 C    1.506     3 C    1.366    10 H    0.968
     3   6 C    3.829 --     2 C    1.366     4 C    1.366     8 F    0.880
     4   6 C    3.986 --     5 C    1.506     3 C    1.366    11 H    0.968
     5   6 C    3.976 --     4 C    1.506     6 C    1.202    12 H    0.972
                             7 O    0.107
     6   6 C    3.972 --     7 O    1.477     1 C    1.202     5 C    1.202
     7   8 O    1.796 --     6 C    1.477     5 C    0.107     1 C    0.107
     8   9 F    0.976 --     3 C    0.880
     9   1 H    1.000 --     1 C    0.972
    10   1 H    1.000 --     2 C    0.968
    11   1 H    1.000 --     4 C    0.968
    12   1 H    1.000 --     5 C    0.972
 ---------------------------------------------------------------------------

Topologies differ in total number of bonds
Writing topology from bond orders to xtbtopo.mol

molecular dipole:
                 x           y           z       tot (Debye)
 q only:       -1.251       0.403      -0.001
   full:       -1.537       0.495      -0.002       4.104
molecular quadrupole (traceless):
                xx          xy          yy          xz          yz          zz
 q only:      -18.976       9.085       6.271      -0.026       0.032      12.705
  q+dip:      -21.423      11.382      10.208      -0.040      -0.005      11.215
   full:      -21.952      11.065       8.798      -0.035       0.017      13.154

           -------------------------------------------------
          |                Geometry Summary                 |
           -------------------------------------------------

      molecular mass/u    :      111.0939865
   center of mass at/Å    :       -0.0671823       0.0216784      -0.0000543
  moments of inertia/u·Å² :        0.8821817E+02   0.3395430E+03   0.4277612E+03
rotational constants/cm⁻¹ :        0.1910902E+00   0.4964801E-01   0.3940898E-01

 * 8 selected distances

     #   Z          #   Z                                           value/Å
     1   6 C        2   6 C                                       1.3735764
     2   6 C        3   6 C                                       1.3834098
     3   6 C        4   6 C                                       1.3834724 (max)
     4   6 C        5   6 C                                       1.3735401
     1   6 C        9   1 H                                       1.0839188
     2   6 C       10   1 H                                       1.0846171
     4   6 C       11   1 H                                       1.0847000
     5   6 C       12   1 H                                       1.0838342 (min)

 * 2 distinct bonds (by element types)

   Z      Z             #   av. dist./Å        max./Å        min./Å
   1 H    6 C           4     1.0842675     1.0847000     1.0838342
   6 C    6 C           4     1.3784996     1.3834724     1.3735401


optimized geometry written to: xtbopt.xyz


           -------------------------------------------------
          | TOTAL ENERGY              -23.887734472101 Eh   |
          | GRADIENT NORM               0.000261619776 Eh/α |
          | HOMO-LUMO GAP               3.103181083937 eV   |
           -------------------------------------------------

------------------------------------------------------------------------
 * finished run on 2022/03/19 at 15:14:14.278     
------------------------------------------------------------------------
 total:
 * wall-time:     0 d,  0 h,  0 min,  0.045 sec
 *  cpu-time:     0 d,  0 h,  0 min,  0.665 sec
 * ratio c/w:    14.741 speedup
 SCF:
 * wall-time:     0 d,  0 h,  0 min,  0.008 sec
 *  cpu-time:     0 d,  0 h,  0 min,  0.113 sec
 * ratio c/w:    14.686 speedup
 ANC optimizer:
 * wall-time:     0 d,  0 h,  0 min,  0.033 sec
 *  cpu-time:     0 d,  0 h,  0 min,  0.488 sec
 * ratio c/w:    14.902 speedup

