
                                 *****************
                                 * O   R   C   A *
                                 *****************

                                            #,                                       
                                            ###                                      
                                            ####                                     
                                            #####                                    
                                            ######                                   
                                           ########,                                 
                                     ,,################,,,,,                         
                               ,,#################################,,                 
                          ,,##########################################,,             
                       ,#########################################, ''#####,          
                    ,#############################################,,   '####,        
                  ,##################################################,,,,####,       
                ,###########''''           ''''###############################       
              ,#####''   ,,,,##########,,,,          '''####'''          '####       
            ,##' ,,,,###########################,,,                        '##       
           ' ,,###''''                  '''############,,,                           
         ,,##''                                '''############,,,,        ,,,,,,###''
      ,#''                                            '''#######################'''  
     '                                                          ''''####''''         
             ,#######,   #######,   ,#######,      ##                                
            ,#'     '#,  ##    ##  ,#'     '#,    #''#        ######   ,####,        
            ##       ##  ##   ,#'  ##            #'  '#       #        #'  '#        
            ##       ##  #######   ##           ,######,      #####,   #    #        
            '#,     ,#'  ##    ##  '#,     ,#' ,#      #,         ##   #,  ,#        
             '#######'   ##     ##  '#######'  #'      '#     #####' # '####'        



                  #######################################################
                  #                        -***-                        #
                  #          Department of theory and spectroscopy      #
                  #    Directorship and core code : Frank Neese         #
                  #        Max Planck Institute fuer Kohlenforschung    #
                  #                Kaiser Wilhelm Platz 1               #
                  #                 D-45470 Muelheim/Ruhr               #
                  #                      Germany                        #
                  #                                                     #
                  #                  All rights reserved                #
                  #                        -***-                        #
                  #######################################################


                         Program Version 5.0.1 -  RELEASE  -


 With contributions from (in alphabetic order):
   Daniel Aravena         : Magnetic Suceptibility
   Michael Atanasov       : Ab Initio Ligand Field Theory (pilot matlab implementation)
   Alexander A. Auer      : GIAO ZORA, VPT2 properties, NMR spectrum
   Ute Becker             : Parallelization
   Giovanni Bistoni       : ED, misc. LED, open-shell LED, HFLD
   Martin Brehm           : Molecular dynamics
   Dmytro Bykov           : SCF Hessian
   Vijay G. Chilkuri      : MRCI spin determinant printing, contributions to CSF-ICE
   Dipayan Datta          : RHF DLPNO-CCSD density
   Achintya Kumar Dutta   : EOM-CC, STEOM-CC
   Dmitry Ganyushin       : Spin-Orbit,Spin-Spin,Magnetic field MRCI
   Miquel Garcia          : C-PCM and meta-GGA Hessian, CC/C-PCM, Gaussian charge scheme
   Yang Guo               : DLPNO-NEVPT2, F12-NEVPT2, CIM, IAO-localization
   Andreas Hansen         : Spin unrestricted coupled pair/coupled cluster methods
   Benjamin Helmich-Paris : MC-RPA, TRAH-SCF, COSX integrals
   Lee Huntington         : MR-EOM, pCC
   Robert Izsak           : Overlap fitted RIJCOSX, COSX-SCS-MP3, EOM
   Marcus Kettner         : VPT2
   Christian Kollmar      : KDIIS, OOCD, Brueckner-CCSD(T), CCSD density, CASPT2, CASPT2-K
   Simone Kossmann        : Meta GGA functionals, TD-DFT gradient, OOMP2, MP2 Hessian
   Martin Krupicka        : Initial AUTO-CI
   Lucas Lang             : DCDCAS
   Marvin Lechner         : AUTO-CI (C++ implementation), FIC-MRCC
   Dagmar Lenk            : GEPOL surface, SMD
   Dimitrios Liakos       : Extrapolation schemes; Compound Job, initial MDCI parallelization
   Dimitrios Manganas     : Further ROCIS development; embedding schemes
   Dimitrios Pantazis     : SARC Basis sets
   Anastasios Papadopoulos: AUTO-CI, single reference methods and gradients
   Taras Petrenko         : DFT Hessian,TD-DFT gradient, ASA, ECA, R-Raman, ABS, FL, XAS/XES, NRVS
   Peter Pinski           : DLPNO-MP2, DLPNO-MP2 Gradient
   Christoph Reimann      : Effective Core Potentials
   Marius Retegan         : Local ZFS, SOC
   Christoph Riplinger    : Optimizer, TS searches, QM/MM, DLPNO-CCSD(T), (RO)-DLPNO pert. Triples
   Tobias Risthaus        : Range-separated hybrids, TD-DFT gradient, RPA, STAB
   Michael Roemelt        : Original ROCIS implementation
   Masaaki Saitow         : Open-shell DLPNO-CCSD energy and density
   Barbara Sandhoefer     : DKH picture change effects
   Avijit Sen             : IP-ROCIS
   Kantharuban Sivalingam : CASSCF convergence, NEVPT2, FIC-MRCI
   Bernardo de Souza      : ESD, SOC TD-DFT
   Georgi Stoychev        : AutoAux, RI-MP2 NMR, DLPNO-MP2 response
   Willem Van den Heuvel  : Paramagnetic NMR
   Boris Wezisla          : Elementary symmetry handling
   Frank Wennmohs         : Technical directorship


 We gratefully acknowledge several colleagues who have allowed us to
 interface, adapt or use parts of their codes:
   Stefan Grimme, W. Hujo, H. Kruse, P. Pracht,  : VdW corrections, initial TS optimization,
                  C. Bannwarth, S. Ehlert          DFT functionals, gCP, sTDA/sTD-DF
   Ed Valeev, F. Pavosevic, A. Kumar             : LibInt (2-el integral package), F12 methods
   Garnet Chan, S. Sharma, J. Yang, R. Olivares  : DMRG
   Ulf Ekstrom                                   : XCFun DFT Library
   Mihaly Kallay                                 : mrcc  (arbitrary order and MRCC methods)
   Jiri Pittner, Ondrej Demel                    : Mk-CCSD
   Frank Weinhold                                : gennbo (NPA and NBO analysis)
   Christopher J. Cramer and Donald G. Truhlar   : smd solvation model
   Lars Goerigk                                  : TD-DFT with DH, B97 family of functionals
   V. Asgeirsson, H. Jonsson                     : NEB implementation
   FAccTs GmbH                                   : IRC, NEB, NEB-TS, DLPNO-Multilevel, CI-OPT
                                                   MM, QMMM, 2- and 3-layer-ONIOM, Crystal-QMMM,
                                                   LR-CPCM, SF, NACMEs, symmetry and pop. for TD-DFT,
                                                   nearIR, NL-DFT gradient (VV10), updates on ESD,
                                                   ML-optimized integration grids
   S Lehtola, MJT Oliveira, MAL Marques          : LibXC Library
   Liviu Ungur et al                             : ANISO software


 Your calculation uses the libint2 library for the computation of 2-el integrals
 For citations please refer to: http://libint.valeyev.net

 Your ORCA version has been built with support for libXC version: 5.1.0
 For citations please refer to: https://tddft.org/programs/libxc/

 This ORCA versions uses:
   CBLAS   interface :  Fast vector & matrix operations
   LAPACKE interface :  Fast linear algebra routines
   SCALAPACK package :  Parallel linear algebra routines
   Shared memory     :  Shared parallel matrices
   BLAS/LAPACK       :  OpenBLAS 0.3.15  USE64BITINT DYNAMIC_ARCH NO_AFFINITY Zen SINGLE_THREADED
        Core in use  :  Zen
   Copyright (c) 2011-2014, The OpenBLAS Project


Your calculation utilizes the atom-pairwise dispersion correction
based on tight binding partial charges (D4)
Cite in your paper:
E.Caldeweyher, C.Bannwarth, S.Grimme, J.Chem.Phys., (2017), 147, 034112.
E.Caldeweyher, S.Ehlert, A.Hansen, H.Neugebauer, S.Grimme, J.Chem.Phys., (2018), in progress.
   

================================================================================

----- Orbital basis set information -----
Your calculation utilizes the basis: def2-SVP
   F. Weigend and R. Ahlrichs, Phys. Chem. Chem. Phys. 7, 3297 (2005).

----- AuxJ basis set information -----
Your calculation utilizes the auxiliary basis: def2/J
   F. Weigend, Phys. Chem. Chem. Phys. 8, 1057 (2006).

================================================================================
                                        WARNINGS
                       Please study these warnings very carefully!
================================================================================


INFO   : the flag for use of the SHARK integral package has been found!

================================================================================
                                       INPUT FILE
================================================================================
NAME = p-fluorophenol_orca.inp
|  1> ! Freq PBE0 def2-SVP def2/J RIJCOSX D4
|  2> %output 
|  3> xyzfile=True 
|  4> end 
|  5> %scf 
|  6> maxiter 250 
|  7> end
|  8> %output
|  9> Print[P_Hirshfeld] = 1
| 10> end
| 11> % maxcore
| 12> 4000
| 13> %pal nprocs 8
| 14> end
| 15> *xyz 0 1
| 16> C    0.53468883  -1.12076656   0.05351037 
| 17> C   -0.79097668  -1.16153101   0.51469197 
| 18> C   -1.54775211   0.01566093   0.52507901 
| 19> C   -1.00421578   1.23032566   0.08339644 
| 20> C    0.31863783   1.26754214  -0.37600970 
| 21> C    1.09840231   0.09175406  -0.39438417 
| 22> O    2.38131632   0.18875858  -0.85255456 
| 23> F   -2.82417207  -0.01875954   0.96862154 
| 24> H    1.13712693  -2.04423443   0.04250557 
| 25> H   -1.24283940  -2.10004521   0.86670448 
| 26> H   -1.62483933   2.13785146   0.10400999 
| 27> H    0.76929002   2.20684748  -0.72763225 
| 28> H    2.79523311  -0.69330355  -0.80793869 
| 29> *
| 30> 
| 31>                          ****END OF INPUT****
================================================================================

                       ****************************
                       * Single Point Calculation *
                       ****************************

---------------------------------
CARTESIAN COORDINATES (ANGSTROEM)
---------------------------------
  C      0.534689   -1.120767    0.053510
  C     -0.790977   -1.161531    0.514692
  C     -1.547752    0.015661    0.525079
  C     -1.004216    1.230326    0.083396
  C      0.318638    1.267542   -0.376010
  C      1.098402    0.091754   -0.394384
  O      2.381316    0.188759   -0.852555
  F     -2.824172   -0.018760    0.968622
  H      1.137127   -2.044234    0.042506
  H     -1.242839   -2.100045    0.866704
  H     -1.624839    2.137851    0.104010
  H      0.769290    2.206847   -0.727632
  H      2.795233   -0.693304   -0.807939

----------------------------
CARTESIAN COORDINATES (A.U.)
----------------------------
  NO LB      ZA    FRAG     MASS         X           Y           Z
   0 C     6.0000    0    12.011    1.010415   -2.117942    0.101120
   1 C     6.0000    0    12.011   -1.494729   -2.194976    0.972627
   2 C     6.0000    0    12.011   -2.924828    0.029595    0.992256
   3 C     6.0000    0    12.011   -1.897693    2.324979    0.157596
   4 C     6.0000    0    12.011    0.602138    2.395308   -0.710555
   5 C     6.0000    0    12.011    2.075680    0.173390   -0.745278
   6 O     8.0000    0    15.999    4.500036    0.356702   -1.611095
   7 F     9.0000    0    18.998   -5.336912   -0.035450    1.830429
   8 H     1.0000    0     1.008    2.148858   -3.863043    0.080324
   9 H     1.0000    0     1.008   -2.348626   -3.968510    1.637834
  10 H     1.0000    0     1.008   -3.070501    4.039954    0.196550
  11 H     1.0000    0     1.008    1.453747    4.170337   -1.375026
  12 H     1.0000    0     1.008    5.282225   -1.310154   -1.526783

--------------------------------
INTERNAL COORDINATES (ANGSTROEM)
--------------------------------
 C      0   0   0     0.000000000000     0.00000000     0.00000000
 C      1   0   0     1.404186331284     0.00000000     0.00000000
 C      2   1   0     1.399499126707   119.24385478     0.00000000
 C      3   2   1     1.402114703217   121.11360705     0.00000000
 C      4   3   2     1.400850006726   119.49803308     0.00000000
 C      1   2   3     1.410173273190   120.44238711     0.00000000
 O      6   1   2     1.365722643961   122.89735033   179.98778623
 F      3   2   1     1.351725807610   119.44830081   180.02304946
 H      1   2   3     1.102653924347   119.65432750   179.99230506
 H      2   1   3     1.099500626887   121.19282801   180.00217339
 H      4   3   2     1.099637025079   119.35819085   179.99425453
 H      5   4   3     1.099554607908   120.97063504   180.01617267
 H      7   6   1     0.975372383287   108.60599278     0.00000000

---------------------------
INTERNAL COORDINATES (A.U.)
---------------------------
 C      0   0   0     0.000000000000     0.00000000     0.00000000
 C      1   0   0     2.653527607123     0.00000000     0.00000000
 C      2   1   0     2.644670074137   119.24385478     0.00000000
 C      3   2   1     2.649612797425   121.11360705     0.00000000
 C      4   3   2     2.647222867413   119.49803308     0.00000000
 C      1   2   3     2.664841287705   120.44238711     0.00000000
 O      6   1   2     2.580841771981   122.89735033   179.98778623
 F      3   2   1     2.554391584537   119.44830081   180.02304946
 H      1   2   3     2.083713937509   119.65432750   179.99230506
 H      2   1   3     2.077755068890   121.19282801   180.00217339
 H      4   3   2     2.078012824119   119.35819085   179.99425453
 H      5   4   3     2.077857078238   120.97063504   180.01617267
 H      7   6   1     1.843186683003   108.60599278     0.00000000

---------------------
BASIS SET INFORMATION
---------------------
There are 4 groups of distinct atoms

 Group   1 Type C   : 7s4p1d contracted to 3s2p1d pattern {511/31/1}
 Group   2 Type O   : 7s4p1d contracted to 3s2p1d pattern {511/31/1}
 Group   3 Type F   : 7s4p1d contracted to 3s2p1d pattern {511/31/1}
 Group   4 Type H   : 4s1p contracted to 2s1p pattern {31/1}

Atom   0C    basis set group =>   1
Atom   1C    basis set group =>   1
Atom   2C    basis set group =>   1
Atom   3C    basis set group =>   1
Atom   4C    basis set group =>   1
Atom   5C    basis set group =>   1
Atom   6O    basis set group =>   2
Atom   7F    basis set group =>   3
Atom   8H    basis set group =>   4
Atom   9H    basis set group =>   4
Atom  10H    basis set group =>   4
Atom  11H    basis set group =>   4
Atom  12H    basis set group =>   4
---------------------------------
AUXILIARY/J BASIS SET INFORMATION
---------------------------------
There are 4 groups of distinct atoms

 Group   1 Type C   : 12s5p4d2f1g contracted to 6s4p3d1f1g pattern {711111/2111/211/2/1}
 Group   2 Type O   : 12s5p4d2f1g contracted to 6s4p3d1f1g pattern {711111/2111/211/2/1}
 Group   3 Type F   : 12s5p4d2f1g contracted to 6s4p3d1f1g pattern {711111/2111/211/2/1}
 Group   4 Type H   : 5s2p1d contracted to 3s1p1d pattern {311/2/1}

Atom   0C    basis set group =>   1
Atom   1C    basis set group =>   1
Atom   2C    basis set group =>   1
Atom   3C    basis set group =>   1
Atom   4C    basis set group =>   1
Atom   5C    basis set group =>   1
Atom   6O    basis set group =>   2
Atom   7F    basis set group =>   3
Atom   8H    basis set group =>   4
Atom   9H    basis set group =>   4
Atom  10H    basis set group =>   4
Atom  11H    basis set group =>   4
Atom  12H    basis set group =>   4


           ************************************************************
           *        Program running with 8 parallel MPI-processes     *
           *              working on a common directory               *
           ************************************************************
------------------------------------------------------------------------------
                           ORCA GTO INTEGRAL CALCULATION
                           -- RI-GTO INTEGRALS CHOSEN --
------------------------------------------------------------------------------
------------------------------------------------------------------------------
                   ___                                                        
                  /   \      - P O W E R E D   B Y -                         
                 /     \                                                     
                 |  |  |   _    _      __       _____    __    __             
                 |  |  |  | |  | |    /  \     |  _  \  |  |  /  |          
                  \  \/   | |  | |   /    \    | | | |  |  | /  /          
                 / \  \   | |__| |  /  /\  \   | |_| |  |  |/  /          
                |  |  |   |  __  | /  /__\  \  |    /   |      \           
                |  |  |   | |  | | |   __   |  |    \   |  |\   \          
                \     /   | |  | | |  |  |  |  | |\  \  |  | \   \       
                 \___/    |_|  |_| |__|  |__|  |_| \__\ |__|  \__/        
                                                                              
                      - O R C A' S   B I G   F R I E N D -                    
                                      &                                       
                       - I N T E G R A L  F E E D E R -                       
                                                                              
 v1 FN, 2020, v2 2021                                                         
------------------------------------------------------------------------------


Reading SHARK input file p-fluorophenol_orca.SHARKINP.tmp ... ok
----------------------
SHARK INTEGRAL PACKAGE
----------------------

Number of atoms                             ...     13
Number of basis functions                   ...    137
Number of shells                            ...     63
Maximum angular momentum                    ...      2
Integral batch strategy                     ... SHARK/LIBINT Hybrid
RI-J (if used) integral strategy            ... SPLIT-RIJ (Revised 2003 algorithm where possible)
Printlevel                                  ...      1
Contraction scheme used                     ... SEGMENTED contraction
Coulomb Range Separation                    ... NOT USED
Exchange Range Separation                   ... NOT USED
Finite Nucleus Model                        ... NOT USED
Auxiliary Coulomb fitting basis             ... AVAILABLE
   # of basis functions in Aux-J            ...    447
   # of shells in Aux-J                     ...    145
   Maximum angular momentum in Aux-J        ...      4
Auxiliary J/K fitting basis                 ... NOT available
Auxiliary Correlation fitting basis         ... NOT available
Auxiliary 'external' fitting basis          ... NOT available
Integral threshold                          ...     1.000000e-10
Primitive cut-off                           ...     1.000000e-11
Primitive pair pre-selection threshold      ...     1.000000e-11

Calculating pre-screening integrals         ... done (  0.0 sec) Dimension = 63
Organizing shell pair data                  ... done (  0.0 sec)
Shell pair information
Total number of shell pairs                 ...      2016
Shell pairs after pre-screening             ...      1894
Total number of primitive shell pairs       ...      7500
Primitive shell pairs kept                  ...      5218
          la=0 lb=0:    555 shell pairs
          la=1 lb=0:    670 shell pairs
          la=1 lb=1:    220 shell pairs
          la=2 lb=0:    254 shell pairs
          la=2 lb=1:    160 shell pairs
          la=2 lb=2:     35 shell pairs

Calculating one electron integrals          ... done (  0.0 sec)
Calculating RI/J V-Matrix + Cholesky decomp.... done (  0.0 sec)
Calculating Nuclear repulsion               ... done (  0.0 sec) ENN=    340.353517237023 Eh

SHARK setup successfully completed in   0.1 seconds

Maximum memory used throughout the entire GTOINT-calculation: 8.9 MB


           ************************************************************
           *        Program running with 8 parallel MPI-processes     *
           *              working on a common directory               *
           ************************************************************
-------------------------------------------------------------------------------
                                 ORCA SCF
-------------------------------------------------------------------------------

------------
SCF SETTINGS
------------
Hamiltonian:
 Density Functional     Method          .... DFT(GTOs)
 Exchange Functional    Exchange        .... PBE
   PBE kappa parameter   XKappa         ....  0.804000
   PBE mue parameter    XMuePBE         ....  0.219520
 Correlation Functional Correlation     .... PBE
   PBE beta parameter  CBetaPBE         ....  0.066725
 LDA part of GGA corr.  LDAOpt          .... PW91-LDA
 Gradients option       PostSCFGGA      .... off
 Hybrid DFT is turned on
   Fraction HF Exchange ScalHFX         ....  0.250000
   Scaling of DF-GGA-X  ScalDFX         ....  0.750000
   Scaling of DF-GGA-C  ScalDFC         ....  1.000000
   Scaling of DF-LDA-C  ScalLDAC        ....  1.000000
   Perturbative correction              ....  0.000000
   Density functional embedding theory  .... OFF
   NL short-range parameter             ....  6.900000
 RI-approximation to the Coulomb term is turned on
   Number of AuxJ basis functions       .... 447
   RIJ-COSX (HFX calculated with COS-X)).... on


General Settings:
 Integral files         IntName         .... p-fluorophenol_orca
 Hartree-Fock type      HFTyp           .... RHF
 Total Charge           Charge          ....    0
 Multiplicity           Mult            ....    1
 Number of Electrons    NEL             ....   58
 Basis Dimension        Dim             ....  137
 Nuclear Repulsion      ENuc            ....    340.3535172370 Eh

Convergence Acceleration:
 DIIS                   CNVDIIS         .... on
   Start iteration      DIISMaxIt       ....    12
   Startup error        DIISStart       ....  0.200000
   # of expansion vecs  DIISMaxEq       ....     5
   Bias factor          DIISBfac        ....   1.050
   Max. coefficient     DIISMaxC        ....  10.000
 Trust-Rad. Augm. Hess. CNVTRAH         .... auto
   Auto Start mean grad. ratio tolernc. ....  1.125000
   Auto Start start iteration           ....    20
   Auto Start num. interpolation iter.  ....    10
   Max. Number of Micro iterations      ....    16
   Max. Number of Macro iterations      .... Maxiter - #DIIS iter
   Number of Davidson start vectors     ....     2
   Converg. threshold I  (grad. norm)   ....   5.000e-05
   Converg. threshold II (energy diff.) ....   1.000e-06
   Grad. Scal. Fac. for Micro threshold ....   0.100
   Minimum threshold for Micro iter.    ....   0.010
   NR start threshold (gradient norm)   ....   0.001
   Initial trust radius                 ....   0.400
   Minimum AH scaling param. (alpha)    ....   1.000
   Maximum AH scaling param. (alpha)    .... 1000.000
   Orbital update algorithm             .... Taylor
   White noise on init. David. guess    .... on
   Maximum white noise                  ....   0.010
   Quad. conv. algorithm                .... NR
 SOSCF                  CNVSOSCF        .... on
   Start iteration      SOSCFMaxIt      ....   150
   Startup grad/error   SOSCFStart      ....  0.003300
 Level Shifting         CNVShift        .... on
   Level shift para.    LevelShift      ....    0.2500
   Turn off err/grad.   ShiftErr        ....    0.0010
 Zerner damping         CNVZerner       .... off
 Static damping         CNVDamp         .... on
   Fraction old density DampFac         ....    0.7000
   Max. Damping (<1)    DampMax         ....    0.9800
   Min. Damping (>=0)   DampMin         ....    0.0000
   Turn off err/grad.   DampErr         ....    0.1000
 Fernandez-Rico         CNVRico         .... off

SCF Procedure:
 Maximum # iterations   MaxIter         ....   250
 SCF integral mode      SCFMode         .... Direct
   Integral package                     .... SHARK and LIBINT hybrid scheme
 Reset frequency        DirectResetFreq ....    20
 Integral Threshold     Thresh          ....  1.000e-10 Eh
 Primitive CutOff       TCut            ....  1.000e-11 Eh

Convergence Tolerance:
 Convergence Check Mode ConvCheckMode   .... Total+1el-Energy
 Convergence forced     ConvForced      .... 0
 Energy Change          TolE            ....  1.000e-06 Eh
 1-El. energy change                    ....  1.000e-03 Eh
 Orbital Gradient       TolG            ....  5.000e-05
 Orbital Rotation angle TolX            ....  5.000e-05
 DIIS Error             TolErr          ....  1.000e-06


Diagonalization of the overlap matrix:
Smallest eigenvalue                        ... 2.706e-04
Time for diagonalization                   ...    0.002 sec
Threshold for overlap eigenvalues          ... 1.000e-08
Number of eigenvalues below threshold      ... 0
Time for construction of square roots      ...    0.001 sec
Total time needed                          ...    0.004 sec

Time for model grid setup =    0.044 sec

------------------------------
INITIAL GUESS: MODEL POTENTIAL
------------------------------
Loading Hartree-Fock densities                     ... done
Calculating cut-offs                               ... done
Initializing the effective Hamiltonian             ... done
Setting up the integral package (SHARK)            ... done
Starting the Coulomb interaction                   ... done (   0.0 sec)
Reading the grid                                   ... done
Mapping shells                                     ... done
Starting the XC term evaluation                    ... done (   0.0 sec)
  promolecular density results
     # of electrons  =     58.002321092
     EX              =    -50.282754575
     EC              =     -1.942078970
     EX+EC           =    -52.224833545
Transforming the Hamiltonian                       ... done (   0.0 sec)
Diagonalizing the Hamiltonian                      ... done (   0.0 sec)
Back transforming the eigenvectors                 ... done (   0.0 sec)
Now organizing SCF variables                       ... done
                      ------------------
                      INITIAL GUESS DONE (   0.1 sec)
                      ------------------
-------------------
DFT GRID GENERATION
-------------------

General Integration Accuracy     IntAcc      ... 4.388
Radial Grid Type                 RadialGrid  ... OptM3 with GC (2021)
Angular Grid (max. ang.)         AngularGrid ... 4 (Lebedev-302)
Angular grid pruning method      GridPruning ... 4 (adaptive)
Weight generation scheme         WeightScheme... Becke
Basis function cutoff            BFCut       ... 1.0000e-10
Integration weight cutoff        WCut        ... 1.0000e-14
Angular grids for H and He will be reduced by one unit
Partially contracted basis set               ... off
Rotationally invariant grid construction     ... off

Total number of grid points                  ...    64523
Total number of batches                      ...     1014
Average number of points per batch           ...       63
Average number of grid points per atom       ...     4963
Time for grid setup =    0.285 sec

--------------------
COSX GRID GENERATION
--------------------

GRIDX 1
-------
General Integration Accuracy     IntAcc      ... 3.816
Radial Grid Type                 RadialGrid  ... OptM3 with GC (2021)
Angular Grid (max. ang.)         AngularGrid ... 1 (Lebedev-50)
Angular grid pruning method      GridPruning ... 4 (adaptive)
Weight generation scheme         WeightScheme... Becke
Basis function cutoff            BFCut       ... 1.0000e-10
Integration weight cutoff        WCut        ... 1.0000e-14
Angular grids for H and He will be reduced by one unit
Partially contracted basis set               ... on
Rotationally invariant grid construction     ... off

Total number of grid points                  ...     8223
Total number of batches                      ...      133
Average number of points per batch           ...       61
Average number of grid points per atom       ...      633
UseSFitting                                  ... on

GRIDX 2
-------
General Integration Accuracy     IntAcc      ... 4.020
Radial Grid Type                 RadialGrid  ... OptM3 with GC (2021)
Angular Grid (max. ang.)         AngularGrid ... 2 (Lebedev-110)
Angular grid pruning method      GridPruning ... 4 (adaptive)
Weight generation scheme         WeightScheme... Becke
Basis function cutoff            BFCut       ... 1.0000e-10
Integration weight cutoff        WCut        ... 1.0000e-14
Angular grids for H and He will be reduced by one unit
Partially contracted basis set               ... on
Rotationally invariant grid construction     ... off

Total number of grid points                  ...    18378
Total number of batches                      ...      295
Average number of points per batch           ...       62
Average number of grid points per atom       ...     1414
UseSFitting                                  ... on

GRIDX 3
-------
General Integration Accuracy     IntAcc      ... 4.338
Radial Grid Type                 RadialGrid  ... OptM3 with GC (2021)
Angular Grid (max. ang.)         AngularGrid ... 3 (Lebedev-194)
Angular grid pruning method      GridPruning ... 4 (adaptive)
Weight generation scheme         WeightScheme... Becke
Basis function cutoff            BFCut       ... 1.0000e-10
Integration weight cutoff        WCut        ... 1.0000e-14
Angular grids for H and He will be reduced by one unit
Partially contracted basis set               ... on
Rotationally invariant grid construction     ... off

Total number of grid points                  ...    40527
Total number of batches                      ...      641
Average number of points per batch           ...       63
Average number of grid points per atom       ...     3117
UseSFitting                                  ... on

Time for X-Grid setup             =    0.199 sec

--------------
SCF ITERATIONS
--------------
ITER       Energy         Delta-E        Max-DP      RMS-DP      [F,P]     Damp
               ***  Starting incremental Fock matrix formation  ***
  0   -405.8246722382   0.000000000000 0.05658471  0.00227299  0.1987198 0.7000
  1   -405.8858781479  -0.061205909732 0.03446251  0.00158669  0.0938498 0.7000
                               ***Turning on DIIS***
  2   -405.9126942124  -0.026816064478 0.05223339  0.00286825  0.0337113 0.0000
  3   -405.9527803892  -0.040086176792 0.02321965  0.00096643  0.0449348 0.0000
  4   -405.9617443812  -0.008963992036 0.00664009  0.00026775  0.0065676 0.0000
  5   -405.9620822238  -0.000337842572 0.00266898  0.00009233  0.0044086 0.0000
                      *** Initiating the SOSCF procedure ***
                           *** Shutting down DIIS ***
                      *** Re-Reading the Fockian *** 
                      *** Removing any level shift *** 
ITER      Energy       Delta-E        Grad      Rot      Max-DP    RMS-DP
  6   -405.96211794  -0.0000357194  0.000222  0.000222  0.000923  0.000043
               *** Restarting incremental Fock matrix formation ***
  7   -405.96213258  -0.0000146412  0.000218  0.000608  0.001071  0.000030
  8   -405.96213139   0.0000011917  0.000320  0.000445  0.000663  0.000017
  9   -405.96213348  -0.0000020898  0.000033  0.000108  0.000123  0.000004
 10   -405.96213347   0.0000000118  0.000046  0.000064  0.000073  0.000002
                 **** Energy Check signals convergence ****
              ***Rediagonalizing the Fockian in SOSCF/NRSCF***

               *****************************************************
               *                     SUCCESS                       *
               *           SCF CONVERGED AFTER  11 CYCLES          *
               *****************************************************

Old exchange energy                            =    -12.755542920 Eh
New exchange energy                            =    -12.755550207 Eh
Exchange energy change after final integration =     -0.000007286 Eh
Total energy after final integration           =   -405.962140780 Eh
Final COS-X integration done in                =     0.558 sec

----------------
TOTAL SCF ENERGY
----------------

Total Energy       :         -405.96214078 Eh          -11046.79146 eV

Components:
Nuclear Repulsion  :          340.35351724 Eh            9261.49005 eV
Electronic Energy  :         -746.31565802 Eh          -20308.28151 eV
One Electron Energy:        -1228.70478810 Eh          -33434.75707 eV
Two Electron Energy:          482.38913008 Eh           13126.47557 eV
Max COSX asymmetry :            0.00000257 Eh               0.00007 eV

Virial components:
Potential Energy   :         -808.29335570 Eh          -21994.78040 eV
Kinetic Energy     :          402.33121492 Eh           10947.98894 eV
Virial Ratio       :            2.00902472


DFT components:
N(Alpha)           :       28.999995610040 electrons
N(Beta)            :       28.999995610040 electrons
N(Total)           :       57.999991220080 electrons
E(X)               :      -38.204989420924 Eh       
E(C)               :       -1.957916622773 Eh       
E(XC)              :      -40.162906043698 Eh       
DFET-embed. en.    :        0.000000000000 Eh       

---------------
SCF CONVERGENCE
---------------

  Last Energy change         ...   -2.3238e-08  Tolerance :   1.0000e-06
  Last MAX-Density change    ...    3.9968e-15  Tolerance :   1.0000e-05
  Last RMS-Density change    ...    4.9211e-17  Tolerance :   1.0000e-06
  Last Orbital Gradient      ...    2.5324e-06  Tolerance :   5.0000e-05
  Last Orbital Rotation      ...    7.4804e-06  Tolerance :   5.0000e-05

             **** THE GBW FILE WAS UPDATED (p-fluorophenol_orca.gbw) ****
             **** DENSITY p-fluorophenol_orca.scfp WAS UPDATED ****
             **** ENERGY FILE WAS UPDATED (p-fluorophenol_orca.en.tmp) ****
             **** THE GBW FILE WAS UPDATED (p-fluorophenol_orca.gbw) ****
             **** DENSITY p-fluorophenol_orca.scfp WAS UPDATED ****
----------------
ORBITAL ENERGIES
----------------

  NO   OCC          E(Eh)            E(eV) 
   0   2.0000     -24.777503      -674.2301 
   1   2.0000     -19.248641      -523.7822 
   2   2.0000     -10.318187      -280.7721 
   3   2.0000     -10.307712      -280.4871 
   4   2.0000     -10.255520      -279.0669 
   5   2.0000     -10.254608      -279.0421 
   6   2.0000     -10.252975      -278.9976 
   7   2.0000     -10.249527      -278.9038 
   8   2.0000      -1.229494       -33.4562 
   9   2.0000      -1.082787       -29.4641 
  10   2.0000      -0.878062       -23.8933 
  11   2.0000      -0.777127       -21.1467 
  12   2.0000      -0.757179       -20.6039 
  13   2.0000      -0.655373       -17.8336 
  14   2.0000      -0.630018       -17.1437 
  15   2.0000      -0.570414       -15.5218 
  16   2.0000      -0.556702       -15.1486 
  17   2.0000      -0.517043       -14.0695 
  18   2.0000      -0.478485       -13.0202 
  19   2.0000      -0.466840       -12.7034 
  20   2.0000      -0.450458       -12.2576 
  21   2.0000      -0.444934       -12.1073 
  22   2.0000      -0.430149       -11.7049 
  23   2.0000      -0.422672       -11.5015 
  24   2.0000      -0.390229       -10.6187 
  25   2.0000      -0.359320        -9.7776 
  26   2.0000      -0.349053        -9.4982 
  27   2.0000      -0.280109        -7.6222 
  28   2.0000      -0.236182        -6.4268 
  29   0.0000      -0.019766        -0.5379 
  30   0.0000       0.009227         0.2511 
  31   0.0000       0.051697         1.4067 
  32   0.0000       0.072782         1.9805 
  33   0.0000       0.107964         2.9379 
  34   0.0000       0.139489         3.7957 
  35   0.0000       0.154760         4.2112 
  36   0.0000       0.157946         4.2979 
  37   0.0000       0.168645         4.5891 
  38   0.0000       0.225361         6.1324 
  39   0.0000       0.264896         7.2082 
  40   0.0000       0.306248         8.3334 
  41   0.0000       0.312213         8.4957 
  42   0.0000       0.328154         8.9295 
  43   0.0000       0.355839         9.6829 
  44   0.0000       0.390028        10.6132 
  45   0.0000       0.416119        11.3232 
  46   0.0000       0.470904        12.8140 
  47   0.0000       0.475080        12.9276 
  48   0.0000       0.482900        13.1404 
  49   0.0000       0.495369        13.4797 
  50   0.0000       0.522633        14.2216 
  51   0.0000       0.536468        14.5980 
  52   0.0000       0.547221        14.8906 
  53   0.0000       0.555861        15.1258 
  54   0.0000       0.569449        15.4955 
  55   0.0000       0.609170        16.5764 
  56   0.0000       0.609482        16.5849 
  57   0.0000       0.623795        16.9743 
  58   0.0000       0.640341        17.4246 
  59   0.0000       0.675722        18.3873 
  60   0.0000       0.701565        19.0905 
  61   0.0000       0.704219        19.1628 
  62   0.0000       0.715943        19.4818 
  63   0.0000       0.728812        19.8320 
  64   0.0000       0.770906        20.9774 
  65   0.0000       0.781087        21.2545 
  66   0.0000       0.787031        21.4162 
  67   0.0000       0.822854        22.3910 
  68   0.0000       0.890099        24.2208 
  69   0.0000       0.952414        25.9165 
  70   0.0000       0.965521        26.2732 
  71   0.0000       0.993989        27.0478 
  72   0.0000       1.068391        29.0724 
  73   0.0000       1.094548        29.7842 
  74   0.0000       1.168126        31.7863 
  75   0.0000       1.227021        33.3889 
  76   0.0000       1.229974        33.4693 
  77   0.0000       1.235865        33.6296 
  78   0.0000       1.256172        34.1822 
  79   0.0000       1.272728        34.6327 
  80   0.0000       1.281137        34.8615 
  81   0.0000       1.286318        35.0025 
  82   0.0000       1.361100        37.0374 
  83   0.0000       1.467467        39.9318 
  84   0.0000       1.491449        40.5844 
  85   0.0000       1.512377        41.1539 
  86   0.0000       1.541891        41.9570 
  87   0.0000       1.573137        42.8072 
  88   0.0000       1.659840        45.1665 
  89   0.0000       1.674952        45.5778 
  90   0.0000       1.713260        46.6202 
  91   0.0000       1.732684        47.1487 
  92   0.0000       1.733452        47.1696 
  93   0.0000       1.742085        47.4046 
  94   0.0000       1.744376        47.4669 
  95   0.0000       1.793097        48.7926 
  96   0.0000       1.810190        49.2578 
  97   0.0000       1.822577        49.5948 
  98   0.0000       1.855348        50.4866 
  99   0.0000       1.868085        50.8332 
 100   0.0000       1.895303        51.5738 
 101   0.0000       1.969631        53.5964 
 102   0.0000       1.975380        53.7528 
 103   0.0000       2.060681        56.0740 
 104   0.0000       2.073391        56.4198 
 105   0.0000       2.109843        57.4118 
 106   0.0000       2.139051        58.2065 
 107   0.0000       2.151623        58.5486 
 108   0.0000       2.189620        59.5826 
 109   0.0000       2.236687        60.8633 
 110   0.0000       2.257970        61.4425 
 111   0.0000       2.272449        61.8365 
 112   0.0000       2.285380        62.1883 
 113   0.0000       2.335722        63.5582 
 114   0.0000       2.360548        64.2338 
 115   0.0000       2.416757        65.7633 
 116   0.0000       2.556968        69.5786 
 117   0.0000       2.600791        70.7711 
 118   0.0000       2.602859        70.8274 
 119   0.0000       2.604673        70.8768 
 120   0.0000       2.717431        73.9450 
 121   0.0000       2.825367        76.8821 
 122   0.0000       2.838913        77.2507 
 123   0.0000       2.859638        77.8147 
 124   0.0000       2.892159        78.6996 
 125   0.0000       2.911889        79.2365 
 126   0.0000       2.983198        81.1769 
 127   0.0000       3.095053        84.2207 
 128   0.0000       3.113795        84.7307 
 129   0.0000       3.129214        85.1502 
 130   0.0000       3.239774        88.1587 
 131   0.0000       3.326562        90.5203 
 132   0.0000       3.367916        91.6456 
 133   0.0000       3.508789        95.4790 
 134   0.0000       3.573697        97.2452 
 135   0.0000       3.788692       103.0955 
 136   0.0000       3.902432       106.1906 

                    ********************************
                    * MULLIKEN POPULATION ANALYSIS *
                    ********************************

-----------------------
MULLIKEN ATOMIC CHARGES
-----------------------
   0 C :   -0.076507
   1 C :   -0.088223
   2 C :    0.277464
   3 C :   -0.082887
   4 C :   -0.046302
   5 C :    0.150461
   6 O :   -0.231912
   7 F :   -0.223217
   8 H :    0.015947
   9 H :    0.038888
  10 H :    0.040375
  11 H :    0.035272
  12 H :    0.190641
Sum of atomic charges:    0.0000000

--------------------------------
MULLIKEN REDUCED ORBITAL CHARGES
--------------------------------
  0 C s       :     3.187726  s :     3.187726
      pz      :     1.049058  p :     2.856496
      px      :     0.924711
      py      :     0.882727
      dz2     :     0.004176  d :     0.032284
      dxz     :     0.005194
      dyz     :     0.004287
      dx2y2   :     0.007934
      dxy     :     0.010693
  1 C s       :     3.222725  s :     3.222725
      pz      :     0.998653  p :     2.832519
      px      :     0.923983
      py      :     0.909884
      dz2     :     0.003359  d :     0.032979
      dxz     :     0.006197
      dyz     :     0.004612
      dx2y2   :     0.008264
      dxy     :     0.010546
  2 C s       :     2.980468  s :     2.980468
      pz      :     0.983839  p :     2.661230
      px      :     0.679808
      py      :     0.997583
      dz2     :     0.008320  d :     0.080838
      dxz     :     0.016648
      dyz     :     0.008764
      dx2y2   :     0.025347
      dxy     :     0.021758
  3 C s       :     3.222711  s :     3.222711
      pz      :     1.004885  p :     2.827145
      px      :     0.910461
      py      :     0.911799
      dz2     :     0.004336  d :     0.033030
      dxz     :     0.005330
      dyz     :     0.004758
      dx2y2   :     0.007893
      dxy     :     0.010714
  4 C s       :     3.217443  s :     3.217443
      pz      :     1.001880  p :     2.796965
      px      :     0.895593
      py      :     0.899492
      dz2     :     0.003261  d :     0.031894
      dxz     :     0.005699
      dyz     :     0.004186
      dx2y2   :     0.008232
      dxy     :     0.010515
  5 C s       :     2.977791  s :     2.977791
      pz      :     0.956803  p :     2.796176
      px      :     0.799278
      py      :     1.040095
      dz2     :     0.008762  d :     0.075571
      dxz     :     0.016784
      dyz     :     0.008151
      dx2y2   :     0.022243
      dxy     :     0.019631
  6 O s       :     3.699198  s :     3.699198
      pz      :     1.780783  p :     4.518710
      px      :     1.318061
      py      :     1.419866
      dz2     :     0.002189  d :     0.014004
      dxz     :     0.002832
      dyz     :     0.001091
      dx2y2   :     0.004895
      dxy     :     0.002998
  7 F s       :     3.903785  s :     3.903785
      pz      :     1.858334  p :     5.311449
      px      :     1.528575
      py      :     1.924540
      dz2     :     0.001067  d :     0.007983
      dxz     :     0.002458
      dyz     :     0.000191
      dx2y2   :     0.002769
      dxy     :     0.001498
  8 H s       :     0.960730  s :     0.960730
      pz      :     0.004963  p :     0.023323
      px      :     0.006552
      py      :     0.011808
  9 H s       :     0.937698  s :     0.937698
      pz      :     0.005839  p :     0.023414
      px      :     0.005402
      py      :     0.012173
 10 H s       :     0.936297  s :     0.936297
      pz      :     0.004467  p :     0.023328
      px      :     0.007233
      py      :     0.011628
 11 H s       :     0.941379  s :     0.941379
      pz      :     0.005845  p :     0.023349
      px      :     0.005389
      py      :     0.012115
 12 H s       :     0.739768  s :     0.739768
      pz      :     0.017561  p :     0.069591
      px      :     0.018919
      py      :     0.033111


                     *******************************
                     * LOEWDIN POPULATION ANALYSIS *
                     *******************************

----------------------
LOEWDIN ATOMIC CHARGES
----------------------
   0 C :   -0.079882
   1 C :   -0.052360
   2 C :    0.065805
   3 C :   -0.049736
   4 C :   -0.049033
   5 C :    0.041062
   6 O :   -0.066243
   7 F :   -0.082419
   8 H :    0.034738
   9 H :    0.046317
  10 H :    0.046938
  11 H :    0.044642
  12 H :    0.100168

-------------------------------
LOEWDIN REDUCED ORBITAL CHARGES
-------------------------------
  0 C s       :     2.868391  s :     2.868391
      pz      :     1.042158  p :     3.126044
      px      :     1.052275
      py      :     1.031611
      dz2     :     0.008983  d :     0.085447
      dxz     :     0.012336
      dyz     :     0.009656
      dx2y2   :     0.024087
      dxy     :     0.030386
  1 C s       :     2.870573  s :     2.870573
      pz      :     1.005428  p :     3.095709
      px      :     1.048149
      py      :     1.042132
      dz2     :     0.007555  d :     0.086078
      dxz     :     0.014284
      dyz     :     0.009710
      dx2y2   :     0.024615
      dxy     :     0.029915
  2 C s       :     2.853054  s :     2.853054
      pz      :     0.992219  p :     2.897300
      px      :     0.807739
      py      :     1.097342
      dz2     :     0.017028  d :     0.183841
      dxz     :     0.033962
      dyz     :     0.019238
      dx2y2   :     0.058270
      dxy     :     0.055343
  3 C s       :     2.871006  s :     2.871006
      pz      :     1.001859  p :     3.092672
      px      :     1.050395
      py      :     1.040418
      dz2     :     0.009420  d :     0.086058
      dxz     :     0.012427
      dyz     :     0.010570
      dx2y2   :     0.023708
      dxy     :     0.029932
  4 C s       :     2.868595  s :     2.868595
      pz      :     1.013962  p :     3.096399
      px      :     1.044810
      py      :     1.037628
      dz2     :     0.007176  d :     0.084039
      dxz     :     0.013099
      dyz     :     0.008993
      dx2y2   :     0.024683
      dxy     :     0.030088
  5 C s       :     2.844177  s :     2.844177
      pz      :     0.963222  p :     2.945967
      px      :     0.887988
      py      :     1.094757
      dz2     :     0.017548  d :     0.168794
      dxz     :     0.034158
      dyz     :     0.017598
      dx2y2   :     0.051819
      dxy     :     0.047672
  6 O s       :     3.427508  s :     3.427508
      pz      :     1.755588  p :     4.612228
      px      :     1.360953
      py      :     1.495687
      dz2     :     0.003953  d :     0.026507
      dxz     :     0.005072
      dyz     :     0.000866
      dx2y2   :     0.010026
      dxy     :     0.006591
  7 F s       :     3.729670  s :     3.729670
      pz      :     1.859020  p :     5.340405
      px      :     1.561892
      py      :     1.919493
      dz2     :     0.001627  d :     0.012344
      dxz     :     0.003775
      dyz     :     0.000274
      dx2y2   :     0.004486
      dxy     :     0.002181
  8 H s       :     0.897262  s :     0.897262
      pz      :     0.015032  p :     0.068000
      px      :     0.019360
      py      :     0.033608
  9 H s       :     0.885153  s :     0.885153
      pz      :     0.017389  p :     0.068530
      px      :     0.016174
      py      :     0.034966
 10 H s       :     0.884713  s :     0.884713
      pz      :     0.013783  p :     0.068349
      px      :     0.021049
      py      :     0.033517
 11 H s       :     0.886563  s :     0.886563
      pz      :     0.017583  p :     0.068795
      px      :     0.016082
      py      :     0.035130
 12 H s       :     0.725683  s :     0.725683
      pz      :     0.045896  p :     0.174149
      px      :     0.041697
      py      :     0.086556


                      *****************************
                      * MAYER POPULATION ANALYSIS *
                      *****************************

  NA   - Mulliken gross atomic population
  ZA   - Total nuclear charge
  QA   - Mulliken gross atomic charge
  VA   - Mayer's total valence
  BVA  - Mayer's bonded valence
  FA   - Mayer's free valence

  ATOM       NA         ZA         QA         VA         BVA        FA
  0 C      6.0765     6.0000    -0.0765     3.7930     3.7930     0.0000
  1 C      6.0882     6.0000    -0.0882     3.8571     3.8571     0.0000
  2 C      5.7225     6.0000     0.2775     3.8688     3.8688     0.0000
  3 C      6.0829     6.0000    -0.0829     3.8317     3.8317     0.0000
  4 C      6.0463     6.0000    -0.0463     3.8390     3.8390    -0.0000
  5 C      5.8495     6.0000     0.1505     3.9746     3.9746     0.0000
  6 O      8.2319     8.0000    -0.2319     2.2076     2.2076     0.0000
  7 F      9.2232     9.0000    -0.2232     1.1257     1.1257     0.0000
  8 H      0.9841     1.0000     0.0159     0.9928     0.9928    -0.0000
  9 H      0.9611     1.0000     0.0389     0.9930     0.9930     0.0000
 10 H      0.9596     1.0000     0.0404     0.9928     0.9928     0.0000
 11 H      0.9647     1.0000     0.0353     0.9955     0.9955    -0.0000
 12 H      0.8094     1.0000     0.1906     1.0031     1.0031     0.0000

  Mayer bond orders larger than 0.100000
B(  0-C ,  1-C ) :   1.3602 B(  0-C ,  5-C ) :   1.3346 B(  0-C ,  8-H ) :   0.9757 
B(  1-C ,  2-C ) :   1.3800 B(  1-C ,  9-H ) :   0.9794 B(  2-C ,  3-C ) :   1.3579 
B(  2-C ,  7-F ) :   1.0362 B(  3-C ,  4-C ) :   1.3778 B(  3-C , 10-H ) :   0.9825 
B(  4-C ,  5-C ) :   1.3578 B(  4-C , 11-H ) :   0.9834 B(  5-C ,  6-O ) :   1.1624 
B(  6-O , 12-H ) :   0.9596 


------------------
HIRSHFELD ANALYSIS
------------------

Total integrated alpha density =     28.999995610
Total integrated beta density  =     28.999995610

  ATOM     CHARGE      SPIN    
   0 C   -0.063127    0.000000
   1 C   -0.050290    0.000000
   2 C    0.088278    0.000000
   3 C   -0.047232    0.000000
   4 C   -0.048407    0.000000
   5 C    0.078979    0.000000
   6 O   -0.201108    0.000000
   7 F   -0.118939    0.000000
   8 H    0.037294    0.000000
   9 H    0.048431    0.000000
  10 H    0.049011    0.000000
  11 H    0.046760    0.000000
  12 H    0.180359    0.000000

  TOTAL   0.000009    0.000000

-------
TIMINGS
-------

Total SCF time: 0 days 0 hours 0 min 4 sec 

Total time                  ....       4.686 sec
Sum of individual times     ....       4.604 sec  ( 98.2%)

Fock matrix formation       ....       3.899 sec  ( 83.2%)
  Split-RI-J                ....       0.455 sec  ( 11.7% of F)
  Chain of spheres X        ....       2.765 sec  ( 70.9% of F)
  XC integration            ....       0.658 sec  ( 16.9% of F)
    Basis function eval.    ....       0.235 sec  ( 35.7% of XC)
    Density eval.           ....       0.146 sec  ( 22.2% of XC)
    XC-Functional eval.     ....       0.063 sec  (  9.6% of XC)
    XC-Potential eval.      ....       0.120 sec  ( 18.2% of XC)
Diagonalization             ....       0.026 sec  (  0.5%)
Density matrix formation    ....       0.006 sec  (  0.1%)
Population analysis         ....       0.078 sec  (  1.7%)
Initial guess               ....       0.034 sec  (  0.7%)
Orbital Transformation      ....       0.000 sec  (  0.0%)
Orbital Orthonormalization  ....       0.000 sec  (  0.0%)
DIIS solution               ....       0.019 sec  (  0.4%)
SOSCF solution              ....       0.014 sec  (  0.3%)
Grid generation             ....       0.529 sec  ( 11.3%)

Maximum memory used throughout the entire SCF-calculation: 50.0 MB


-------------------------------------------------------------------------------
                          DFT DISPERSION CORRECTION                            
                                                                               
                                 DFTD4 V2.5                                    
-------------------------------------------------------------------------------
The PBE0 functional is recognized
Active option DFTDOPT                   ...         5   

Starting D4
-------------------------   ----------------
Dispersion correction           -0.010374285
-------------------------   ----------------


-------------------------   --------------------
FINAL SINGLE POINT ENERGY      -405.972515065549
-------------------------   --------------------


                            ***************************************
                            *     ORCA property calculations      *
                            ***************************************

                                    ---------------------
                                    Active property flags
                                    ---------------------
   (+) Dipole Moment


------------------------------------------------------------------------------
                       ORCA ELECTRIC PROPERTIES CALCULATION
------------------------------------------------------------------------------

Dipole Moment Calculation                       ... on
Quadrupole Moment Calculation                   ... off
Polarizability Calculation                      ... off
GBWName                                         ... p-fluorophenol_orca.gbw
Electron density                                ... p-fluorophenol_orca.scfp
The origin for moment calculation is the CENTER OF MASS  = (-0.512727,  0.101919  0.153655)

-------------
DIPOLE MOMENT
-------------
                                X             Y             Z
Electronic contribution:     -4.74826       0.14185       1.59184
Nuclear contribution   :      5.39787      -0.64606      -1.70741
                        -----------------------------------------
Total Dipole Moment    :      0.64961      -0.50421      -0.11557
                        -----------------------------------------
Magnitude (a.u.)       :      0.83041
Magnitude (Debye)      :      2.11073



--------------------
Rotational spectrum 
--------------------
 
Rotational constants in cm-1:     0.185107     0.047741     0.037953 
Rotational constants in MHz :  5549.362842  1431.252155  1137.799133 

 Dipole components along the rotational axes: 
x,y,z [a.u.] :     0.637454     0.532192    -0.000022 
x,y,z [Debye]:     1.620280     1.352726    -0.000056 

 


           ************************************************************
           *        Program running with 8 parallel MPI-processes     *
           *              working on a common directory               *
           ************************************************************

-------------------------------------------------------------------------------
                               ORCA SCF HESSIAN
-------------------------------------------------------------------------------

Hessian of the Kohn-Sham DFT energy:
Kohn-Sham wavefunction type                      ... RKS
Hartree-Fock exchange scaling                    ...    0.250
Number of operators                              ...    1
Number of atoms                                  ...   13
Basis set dimensions                             ...  137
Integral neglect threshold                       ... 1.0e-10
Integral primitive cutoff                        ... 1.0e-11

Setting up DFT Hessian calculations              ... 

HESS GRID
---------

General Integration Accuracy     IntAcc      ... 4.629
Radial Grid Type                 RadialGrid  ... OptM3 with GC (2021)
Angular Grid (max. ang.)         AngularGrid ... 5 (Lebedev-434)
Angular grid pruning method      GridPruning ... 4 (adaptive)
Weight generation scheme         WeightScheme... Becke
Basis function cutoff            BFCut       ... 1.0000e-10
Integration weight cutoff        WCut        ... 1.0000e-14
Angular grids for H and He will be reduced by one unit
Partially contracted basis set               ... off
Rotationally invariant grid construction     ... off

Total number of grid points                  ...   100526
Total number of batches                      ...     1578
Average number of points per batch           ...       63
Average number of grid points per atom       ...     7733

Building densities                               ... done   (      0.0 sec)
Calculating rho(r) on the grid                   ... done   (      0.1 sec)
Building xc-kernel on the grid                   ... done   (      0.0 sec)
                                                     done   (      0.8 sec)

Nuclear repulsion Hessian  (SHARK)               ... done   (      0.0 sec)

----------------------------------------------
Forming right-hand sides of CP-SCF equations     ...
----------------------------------------------
One electron integral derivatives  (SHARK)       ... done   (      0.0 sec)
Transforming the overlap derivative matrices     ... done   (      0.0 sec)
Making the Q(x) pseudodensities                  ... done   (      0.0 sec)
Adding the E*S(x)*S(y) terms to the Hessian      ... done   (      0.0 sec)
Calculating energy weighted overlap derivatives  ... done   (      0.0 sec)
Two electron integral derivatives (SHARK-RI)     ... done   (      1.4 sec)
Exchange-correlation integral derivatives        ... done   (      5.0 sec)
tr(F(y)Q(x)) contribution to the Hessian         ... done   (      0.0 sec)
Response fock operator R(S(x)) (SHARK-RIJCOSX)   ... done   (      1.2 sec)
XC Response fock operator R(S(x))                ... done   (      1.6 sec)
tr(F(y)S(x)) contribution to the Hessian         ... done   (      0.0 sec)
Transforming and finalizing RHSs                 ... done   (      0.0 sec)

----------------------------------------------
Solving the CP-SCF equations (RIJCOSX)           ...
----------------------------------------------
     CP-SCF ITERATION   0:   3.0855e-01 (   0.7 sec   0/ 39 done)
     CP-SCF ITERATION   1:   4.7576e-02 (   0.8 sec   0/ 39 done)
     CP-SCF ITERATION   2:   2.0399e-02 (   0.7 sec   0/ 39 done)
     CP-SCF ITERATION   3:   6.6147e-03 (   0.7 sec  15/ 39 done)
     CP-SCF ITERATION   4:   1.5307e-03 (   0.6 sec  29/ 39 done)
     CP-SCF ITERATION   5:   4.2583e-04 (   0.4 sec  39/ 39 done)
                    *** THE CP-SCF HAS CONVERGED ***

                                                 ... done   (      4.0 sec)
Forming perturbed density Hessian contributions  ... done   (      0.0 sec)
2nd integral derivative contribs (SHARK-RI)      ... done   (      6.1 sec)
Exchange-correlation Hessian                     ... done   (      3.7 sec)
Dispersion correction in the Hessian             ... Starting D4
Starting D4
Starting D4
Starting D4
Starting D4
Starting D4
Starting D4
Starting D4


------------------- 
Dispersion Gradient 
------------------- 
   1  :    0.000097548   -0.000164916    0.000001506
   2  :   -0.000112670   -0.000173167    0.000074939
   3  :   -0.000184592   -0.000003784    0.000063809
   4  :   -0.000138030    0.000167934    0.000011698
   5  :    0.000060133    0.000175113   -0.000057458
   6  :    0.000159355    0.000006413   -0.000055758
   7  :    0.000281711    0.000006021   -0.000097428
   8  :   -0.000210083   -0.000005643    0.000072938
   9  :    0.000043853   -0.000082122    0.000002339
  10  :   -0.000042330   -0.000076340    0.000030535
  11  :   -0.000054898    0.000074095    0.000003118
  12  :    0.000033666    0.000081284   -0.000028626
  13  :    0.000061673   -0.000000819   -0.000020877

  |G| =    0.003019223

Starting D4
Starting D4
Starting D4
Starting D4
Starting D4
Starting D4
Starting D4
Starting D4


------------------- 
Dispersion Gradient 
------------------- 
   1  :    0.000096779   -0.000164869    0.000001612
   2  :   -0.000112640   -0.000173171    0.000074934
   3  :   -0.000184472   -0.000003821    0.000063794
   4  :   -0.000137859    0.000167808    0.000011697
   5  :    0.000060183    0.000175110   -0.000057454
   6  :    0.000159367    0.000006431   -0.000055765
   7  :    0.000281886    0.000006091   -0.000097479
   8  :   -0.000210146   -0.000005591    0.000072981
   9  :    0.000043830   -0.000082148    0.000002340
  10  :   -0.000042275   -0.000076310    0.000030512
  11  :   -0.000054902    0.000074145    0.000003119
  12  :    0.000033707    0.000081278   -0.000028626
  13  :    0.000061755   -0.000000810   -0.000020902

  |G| =    0.003018598

Starting D4
Starting D4
Starting D4
Starting D4
Starting D4
Starting D4
Starting D4
Starting D4


------------------- 
Dispersion Gradient 
------------------- 
   1  :    0.000097188   -0.000164903    0.000001529
   2  :   -0.000112655   -0.000173170    0.000074936
   3  :   -0.000184541   -0.000003816    0.000064000
   4  :   -0.000137943    0.000167872    0.000011695
   5  :    0.000060198    0.000175138   -0.000057499
   6  :    0.000159400    0.000006424   -0.000055815
   7  :    0.000281745    0.000006049   -0.000097471
   8  :   -0.000210093   -0.000005616    0.000072957
   9  :    0.000043839   -0.000082133    0.000002318
  10  :   -0.000042303   -0.000076323    0.000030513
  11  :   -0.000054901    0.000074125    0.000003108
  12  :    0.000033681    0.000081276   -0.000028643
  13  :    0.000061704   -0.000000809   -0.000020891

  |G| =    0.003019222

Starting D4
Starting D4
Starting D4
Starting D4
Starting D4
Starting D4
Starting D4
Starting D4


------------------- 
Dispersion Gradient 
------------------- 
   1  :    0.000097140   -0.000164882    0.000001588
   2  :   -0.000112655   -0.000173168    0.000074937
   3  :   -0.000184522   -0.000003791    0.000063603
   4  :   -0.000137946    0.000167870    0.000011700
   5  :    0.000060117    0.000175085   -0.000057413
   6  :    0.000159322    0.000006420   -0.000055708
   7  :    0.000281852    0.000006063   -0.000097436
   8  :   -0.000210137   -0.000005617    0.000072962
   9  :    0.000043844   -0.000082138    0.000002360
  10  :   -0.000042301   -0.000076327    0.000030533
  11  :   -0.000054899    0.000074115    0.000003129
  12  :    0.000033693    0.000081286   -0.000028609
  13  :    0.000061724   -0.000000820   -0.000020887

  |G| =    0.003018598

Starting D4
Starting D4
Starting D4
Starting D4
Starting D4
Starting D4
Starting D4
Starting D4


------------------- 
Dispersion Gradient 
------------------- 
   1  :    0.000097158   -0.000164897    0.000001561
   2  :   -0.000112703   -0.000173230    0.000074960
   3  :   -0.000184534   -0.000003847    0.000063803
   4  :   -0.000137897    0.000167818    0.000011687
   5  :    0.000060165    0.000175112   -0.000057459
   6  :    0.000159352    0.000006672   -0.000055773
   7  :    0.000281799    0.000006075   -0.000097457
   8  :   -0.000210112   -0.000005643    0.000072958
   9  :    0.000043843   -0.000082166    0.000002343
  10  :   -0.000042291   -0.000076337    0.000030518
  11  :   -0.000054911    0.000074105    0.000003121
  12  :    0.000033690    0.000081256   -0.000028624
  13  :    0.000061723   -0.000000835   -0.000020888

  |G| =    0.003019321

Starting D4
Starting D4
Starting D4
Starting D4
Starting D4
Starting D4
Starting D4
Starting D4


------------------- 
Dispersion Gradient 
------------------- 
   1  :    0.000097169   -0.000164888    0.000001556
   2  :   -0.000112607   -0.000173108    0.000074913
   3  :   -0.000184529   -0.000003759    0.000063799
   4  :   -0.000137992    0.000167924    0.000011708
   5  :    0.000060151    0.000175111   -0.000057453
   6  :    0.000159371    0.000006173   -0.000055751
   7  :    0.000281798    0.000006036   -0.000097450
   8  :   -0.000210118   -0.000005591    0.000072961
   9  :    0.000043840   -0.000082106    0.000002336
  10  :   -0.000042313   -0.000076312    0.000030529
  11  :   -0.000054889    0.000074135    0.000003116
  12  :    0.000033684    0.000081307   -0.000028628
  13  :    0.000061705   -0.000000794   -0.000020890

  |G| =    0.003018499

Starting D4
Starting D4
Starting D4
Starting D4
Starting D4
Starting D4
Starting D4
Starting D4


------------------- 
Dispersion Gradient 
------------------- 
   1  :    0.000097185   -0.000164888    0.000001558
   2  :   -0.000112692   -0.000173145    0.000074943
   3  :   -0.000184539   -0.000003812    0.000063799
   4  :   -0.000137944    0.000167845    0.000011698
   5  :    0.000060136    0.000175107   -0.000057455
   6  :    0.000159351    0.000006423   -0.000055762
   7  :    0.000281775    0.000006028   -0.000097441
   8  :   -0.000210098   -0.000005628    0.000072955
   9  :    0.000043920   -0.000082090    0.000002332
  10  :   -0.000042312   -0.000076329    0.000030524
  11  :   -0.000054898    0.000074115    0.000003119
  12  :    0.000033684    0.000081279   -0.000028625
  13  :    0.000061715   -0.000000811   -0.000020894

  |G| =    0.003018853

Starting D4
Starting D4
Starting D4
Starting D4
Starting D4
Starting D4
Starting D4
Starting D4


------------------- 
Dispersion Gradient 
------------------- 
   1  :    0.000097143   -0.000164897    0.000001560
   2  :   -0.000112619   -0.000173193    0.000074930
   3  :   -0.000184523   -0.000003794    0.000063804
   4  :   -0.000137945    0.000167896    0.000011697
   5  :    0.000060179    0.000175116   -0.000057457
   6  :    0.000159371    0.000006421   -0.000055761
   7  :    0.000281822    0.000006083   -0.000097465
   8  :   -0.000210132   -0.000005605    0.000072964
   9  :    0.000043762   -0.000082181    0.000002347
  10  :   -0.000042293   -0.000076321    0.000030523
  11  :   -0.000054902    0.000074125    0.000003118
  12  :    0.000033690    0.000081283   -0.000028626
  13  :    0.000061713   -0.000000819   -0.000020884

  |G| =    0.003018965

Starting D4
Starting D4
Starting D4
Starting D4
Starting D4
Starting D4
Starting D4


------------------- 
Dispersion Gradient 
------------------- 
   1  :    0.000097164   -0.000164891    0.000001544
   2  :   -0.000112654   -0.000173169    0.000074916
   3  :   -0.000184532   -0.000003799    0.000063791
   4  :   -0.000137945    0.000167872    0.000011712
   5  :    0.000060165    0.000175106   -0.000057462
   6  :    0.000159358    0.000006425   -0.000055781
   7  :    0.000281793    0.000006059   -0.000097455
   8  :   -0.000210107   -0.000005600    0.000072951
   9  :    0.000043842   -0.000082136    0.000002338
  10  :   -0.000042302   -0.000076327    0.000030521
  11  :   -0.000054904    0.000074100    0.000003201
  12  :    0.000033686    0.000081281   -0.000028636
  13  :    0.000061713   -0.000000814   -0.000020890

  |G| =    0.003018941

Starting D4
Starting D4
Starting D4
Starting D4
Starting D4
Starting D4
Starting D4


------------------- 
Dispersion Gradient 
------------------- 
   1  :    0.000097164   -0.000164894    0.000001573
   2  :   -0.000112656   -0.000173169    0.000074957
   3  :   -0.000184531   -0.000003807    0.000063812
   4  :   -0.000137944    0.000167870    0.000011684
   5  :    0.000060151    0.000175117   -0.000057450
   6  :    0.000159364    0.000006420   -0.000055742
   7  :    0.000281804    0.000006052   -0.000097451
   8  :   -0.000210122   -0.000005633    0.000072968
   9  :    0.000043842   -0.000082136    0.000002341
  10  :   -0.000042302   -0.000076323    0.000030526
  11  :   -0.000054896    0.000074140    0.000003036
  12  :    0.000033688    0.000081281   -0.000028616
  13  :    0.000061715   -0.000000815   -0.000020889

  |G| =    0.003018878

done   (      0.3 sec)
Dipole derivatives                               ... done   (      0.2 sec)

Total SCF Hessian time: 0 days 0 hours 0 min 24 sec 

Writing the Hessian file to the disk             ... done


Maximum memory used throughout the entire SCFHESS-calculation: 92.2 MB

-----------------------
VIBRATIONAL FREQUENCIES
-----------------------

Scaling factor for frequencies =  1.000000000  (already applied!)

   0:         0.00 cm**-1
   1:         0.00 cm**-1
   2:         0.00 cm**-1
   3:         0.00 cm**-1
   4:         0.00 cm**-1
   5:         0.00 cm**-1
   6:       182.78 cm**-1
   7:       362.22 cm**-1
   8:       396.38 cm**-1
   9:       453.67 cm**-1
  10:       460.70 cm**-1
  11:       464.87 cm**-1
  12:       547.54 cm**-1
  13:       561.70 cm**-1
  14:       647.66 cm**-1
  15:       726.85 cm**-1
  16:       753.15 cm**-1
  17:       843.78 cm**-1
  18:       861.05 cm**-1
  19:       879.32 cm**-1
  20:       964.11 cm**-1
  21:       993.13 cm**-1
  22:      1011.75 cm**-1
  23:      1104.08 cm**-1
  24:      1157.69 cm**-1
  25:      1217.85 cm**-1
  26:      1251.66 cm**-1
  27:      1303.13 cm**-1
  28:      1307.62 cm**-1
  29:      1370.15 cm**-1
  30:      1472.38 cm**-1
  31:      1545.95 cm**-1
  32:      1644.47 cm**-1
  33:      1674.56 cm**-1
  34:      3119.95 cm**-1
  35:      3156.70 cm**-1
  36:      3165.78 cm**-1
  37:      3169.29 cm**-1
  38:      3720.66 cm**-1


------------
NORMAL MODES
------------

These modes are the Cartesian displacements weighted by the diagonal matrix
M(i,i)=1/sqrt(m[i]) where m[i] is the mass of the displaced atom
Thus, these vectors are normalized but *not* orthogonal

                  0          1          2          3          4          5    
      0       0.000000   0.000000   0.000000   0.000000   0.000000   0.000000
      1       0.000000   0.000000   0.000000   0.000000   0.000000   0.000000
      2       0.000000   0.000000   0.000000   0.000000   0.000000   0.000000
      3       0.000000   0.000000   0.000000   0.000000   0.000000   0.000000
      4       0.000000   0.000000   0.000000   0.000000   0.000000   0.000000
      5       0.000000   0.000000   0.000000   0.000000   0.000000   0.000000
      6       0.000000   0.000000   0.000000   0.000000   0.000000   0.000000
      7       0.000000   0.000000   0.000000   0.000000   0.000000   0.000000
      8       0.000000   0.000000   0.000000   0.000000   0.000000   0.000000
      9       0.000000   0.000000   0.000000   0.000000   0.000000   0.000000
     10       0.000000   0.000000   0.000000   0.000000   0.000000   0.000000
     11       0.000000   0.000000   0.000000   0.000000   0.000000   0.000000
     12       0.000000   0.000000   0.000000   0.000000   0.000000   0.000000
     13       0.000000   0.000000   0.000000   0.000000   0.000000   0.000000
     14       0.000000   0.000000   0.000000   0.000000   0.000000   0.000000
     15       0.000000   0.000000   0.000000   0.000000   0.000000   0.000000
     16       0.000000   0.000000   0.000000   0.000000   0.000000   0.000000
     17       0.000000   0.000000   0.000000   0.000000   0.000000   0.000000
     18       0.000000   0.000000   0.000000   0.000000   0.000000   0.000000
     19       0.000000   0.000000   0.000000   0.000000   0.000000   0.000000
     20       0.000000   0.000000   0.000000   0.000000   0.000000   0.000000
     21       0.000000   0.000000   0.000000   0.000000   0.000000   0.000000
     22       0.000000   0.000000   0.000000   0.000000   0.000000   0.000000
     23       0.000000   0.000000   0.000000   0.000000   0.000000   0.000000
     24       0.000000   0.000000   0.000000   0.000000   0.000000   0.000000
     25       0.000000   0.000000   0.000000   0.000000   0.000000   0.000000
     26       0.000000   0.000000   0.000000   0.000000   0.000000   0.000000
     27       0.000000   0.000000   0.000000   0.000000   0.000000   0.000000
     28       0.000000   0.000000   0.000000   0.000000   0.000000   0.000000
     29       0.000000   0.000000   0.000000   0.000000   0.000000   0.000000
     30       0.000000   0.000000   0.000000   0.000000   0.000000   0.000000
     31       0.000000   0.000000   0.000000   0.000000   0.000000   0.000000
     32       0.000000   0.000000   0.000000   0.000000   0.000000   0.000000
     33       0.000000   0.000000   0.000000   0.000000   0.000000   0.000000
     34       0.000000   0.000000   0.000000   0.000000   0.000000   0.000000
     35       0.000000   0.000000   0.000000   0.000000   0.000000   0.000000
     36       0.000000   0.000000   0.000000   0.000000   0.000000   0.000000
     37       0.000000   0.000000   0.000000   0.000000   0.000000   0.000000
     38       0.000000   0.000000   0.000000   0.000000   0.000000   0.000000
                  6          7          8          9         10         11    
      0       0.077953  -0.053724   0.078097  -0.071208   0.046248  -0.035497
      1       0.048077   0.176209   0.048617  -0.043830   0.169360  -0.155383
      2       0.228445  -0.019049   0.228975  -0.208812  -0.051631   0.044473
      3       0.073748   0.005185  -0.078400   0.070987  -0.023987  -0.073476
      4       0.045549   0.198642  -0.047984   0.043634   0.110275   0.159253
      5       0.216058  -0.043241  -0.229510   0.207628  -0.014895  -0.008240
      6       0.018377  -0.015248  -0.101580   0.000223  -0.310199  -0.035222
      7       0.011422   0.154217  -0.062361   0.000080  -0.038281   0.171013
      8       0.053935  -0.026565  -0.296523   0.001033   0.114520  -0.023808
      9       0.074387  -0.038764  -0.079797  -0.069295  -0.018933   0.041509
     10       0.045938   0.194720  -0.049125  -0.042979  -0.168377   0.146588
     11       0.217861  -0.027617  -0.233521  -0.202652   0.042527  -0.045400
     12       0.077825   0.022486   0.080502   0.070053   0.053813   0.071569
     13       0.047959   0.172346   0.049736   0.043377  -0.117381  -0.164667
     14       0.227851  -0.044409   0.235655   0.205391   0.005517   0.010506
     15       0.016140  -0.005318   0.083416   0.001208   0.323748   0.032063
     16       0.009916   0.122924   0.051443   0.000946   0.040602  -0.178539
     17       0.047323  -0.024186   0.243379   0.003218  -0.119273   0.026725
     18      -0.126599   0.050521  -0.059745  -0.001924   0.415185  -0.003692
     19      -0.078113  -0.349286  -0.037539  -0.001505  -0.016572   0.189203
     20      -0.371081   0.056599  -0.176398  -0.006181  -0.137533  -0.038571
     21      -0.116218   0.030867   0.063902  -0.000699  -0.417794  -0.012920
     22      -0.071733  -0.366653   0.039157  -0.000164   0.018670  -0.162738
     23      -0.340243   0.066383   0.188047  -0.001617   0.138455   0.038717
     24       0.084282  -0.055277   0.114986  -0.146059  -0.105167  -0.207866
     25       0.051997   0.174714   0.071375  -0.090014   0.065393  -0.265644
     26       0.247088  -0.018788   0.337922  -0.429018   0.022104   0.126231
     27       0.074707  -0.037275  -0.086344   0.141117   0.234153  -0.260580
     28       0.046207   0.225046  -0.053016   0.086670  -0.040311   0.264330
     29       0.219104  -0.034876  -0.253183   0.412506  -0.072048   0.033680
     30       0.076054   0.002364  -0.097217  -0.139735   0.150728   0.231062
     31       0.046992   0.226123  -0.059828  -0.086415  -0.045680   0.278279
     32       0.222690  -0.048963  -0.285530  -0.409326  -0.041503  -0.138749
     33       0.080592   0.006404   0.111509   0.137387  -0.194163   0.254258
     34       0.049610   0.183435   0.069121   0.085354   0.026445  -0.267063
     35       0.235842  -0.042198   0.327183   0.403940   0.059038  -0.030268
     36      -0.148508  -0.282439  -0.087394   0.027555   0.356549   0.273957
     37      -0.091761  -0.497806  -0.054567   0.016766  -0.049388   0.313205
     38      -0.436359   0.200543  -0.256571   0.081314  -0.117288  -0.159118
                 12         13         14         15         16         17    
      0      -0.003205  -0.006691  -0.304017   0.045707  -0.207765  -0.033243
      1      -0.002025  -0.004161   0.155682   0.028568   0.058948  -0.020239
      2      -0.009059  -0.019755   0.070889   0.134443   0.058278  -0.097431
      3       0.001790  -0.020796  -0.278879  -0.048102  -0.201735  -0.025667
      4       0.001031  -0.013002  -0.177295  -0.029552  -0.030047  -0.015653
      5       0.005403  -0.061102   0.132659  -0.140506   0.075116  -0.075386
      6       0.015062   0.071977   0.007319   0.094140   0.040045   0.008827
      7       0.009121   0.044351  -0.080427   0.058039   0.004290   0.005486
      8       0.043402   0.210783   0.014306   0.275518  -0.014410   0.026100
      9      -0.008466  -0.015792   0.306570  -0.050353  -0.209170   0.016598
     10      -0.005164  -0.009941  -0.155504  -0.031309   0.017218   0.009934
     11      -0.024681  -0.046401  -0.071843  -0.147484   0.067775   0.048481
     12      -0.003770  -0.007839   0.273454   0.047571  -0.194027   0.015764
     13      -0.002252  -0.004879   0.178094   0.029288  -0.075965   0.009514
     14      -0.010844  -0.023064  -0.130897   0.139635   0.081906   0.046320
     15       0.012576   0.069440  -0.011296  -0.101204   0.078783   0.010782
     16       0.007793   0.042936   0.081214  -0.062457   0.003938   0.006641
     17       0.037298   0.203459  -0.013214  -0.296618  -0.027165   0.031428
     18       0.018741  -0.025352  -0.010133   0.012285   0.281219  -0.003547
     19       0.011786  -0.015569   0.109235   0.007531   0.010941  -0.002114
     20       0.055648  -0.074096  -0.019564   0.035666  -0.098432  -0.009855
     21      -0.002709  -0.011691   0.008370  -0.007747   0.263979  -0.001506
     22      -0.001783  -0.006981  -0.101184  -0.004841   0.006704  -0.000974
     23      -0.008906  -0.033834   0.018484  -0.023088  -0.091643  -0.004757
     24      -0.010524  -0.138647  -0.256628   0.150268  -0.352610   0.208662
     25      -0.006545  -0.085626   0.187843   0.093071  -0.038547   0.129116
     26      -0.030981  -0.407404   0.047882   0.441631   0.128087   0.612107
     27      -0.012645  -0.152297  -0.243186  -0.112050  -0.349411   0.168089
     28      -0.007695  -0.094387  -0.198010  -0.069128   0.056838   0.103773
     29      -0.036492  -0.447030   0.125211  -0.328284   0.108219   0.491831
     30      -0.043966  -0.137239   0.267721  -0.110956  -0.331804  -0.112550
     31      -0.027071  -0.084892  -0.182813  -0.068662  -0.071718  -0.069778
     32      -0.128511  -0.403142  -0.052822  -0.325399   0.129372  -0.330995
     33      -0.036206  -0.128544   0.238734   0.154548  -0.373367  -0.113964
     34      -0.022395  -0.079376   0.198297   0.095615   0.027792  -0.070445
     35      -0.106337  -0.376886  -0.123433   0.454157   0.121942  -0.333582
     36      -0.309723   0.103489   0.078043   0.015064   0.236330   0.017130
     37      -0.191076   0.063986   0.146916   0.009267  -0.016771   0.010678
     38      -0.907822   0.303385  -0.057303   0.044143  -0.075714   0.050835
                 18         19         20         21         22         23    
      0      -0.083073  -0.021999  -0.029146  -0.012775   0.034885   0.062481
      1       0.312858  -0.013598  -0.017903  -0.007701  -0.165727  -0.027241
      2      -0.037114  -0.064557  -0.085130  -0.037142   0.022906  -0.015579
      3       0.044045  -0.012493   0.037145   0.014601   0.004582  -0.052309
      4       0.300651  -0.007651   0.022869   0.008831   0.181289  -0.036347
      5      -0.077869  -0.037000   0.108854   0.042743  -0.039606   0.025523
      6      -0.054683   0.032520  -0.012774   0.003589  -0.017848  -0.000807
[...]
     18      -0.175185  -0.008327  -0.002554   0.001291   0.007252   0.000926
     19      -0.000381  -0.005057  -0.001570   0.000806  -0.000599  -0.000317
     20       0.059923  -0.023918  -0.007511   0.003748  -0.002347  -0.000245
     21       0.137499  -0.005931   0.003384  -0.001070   0.013765  -0.000519
     22       0.002502  -0.003627   0.002060  -0.000652   0.000085  -0.004403
     23      -0.047449  -0.017032   0.009724  -0.003085  -0.004719   0.001105
     24      -0.231445   0.112096   0.176592   0.071592  -0.225891   0.348569
     25       0.234824   0.069188   0.109076   0.044376  -0.339052   0.150175
     26       0.025760   0.328617   0.517156   0.209291   0.149068  -0.150441
     27       0.279807   0.071782  -0.232295  -0.083426  -0.320548  -0.437629
     28       0.186153   0.044296  -0.143668  -0.052089   0.368036   0.171141
     29      -0.136873   0.209706  -0.681074  -0.245536   0.030725   0.113229
     30       0.334318   0.190020  -0.086911   0.211011  -0.236408   0.454357
     31      -0.165073   0.117069  -0.053555   0.130417  -0.377521   0.244007
     32      -0.077891   0.556799  -0.254827   0.617912   0.160941  -0.206020
     33      -0.191018   0.202155   0.069695  -0.201840  -0.314849  -0.454902
     34      -0.244436   0.124750   0.042965  -0.125357   0.346280   0.182682
     35       0.117193   0.592395   0.204349  -0.593217   0.033113   0.116624
     36      -0.161586  -0.009546   0.003149   0.004873   0.017151  -0.107070
     37       0.009706  -0.005796   0.001966   0.003036   0.004366  -0.050551
     38       0.053030  -0.027299   0.009515   0.014262  -0.006689   0.047094
                 24         25         26         27         28         29    
      0       0.035786   0.009312  -0.059952   0.089347  -0.073200   0.113651
      1       0.038735   0.062079   0.072375   0.069615   0.062871   0.046956
      2      -0.020384  -0.016316   0.005197  -0.045189   0.011656  -0.048762
      3      -0.033126  -0.033366   0.064716  -0.021733   0.099913  -0.166006
      4       0.016004   0.025745  -0.060670  -0.005250   0.094034   0.085650
      5       0.007937   0.005985  -0.009271   0.008595  -0.053881   0.038677
      6       0.031607   0.003066   0.285844  -0.030313   0.170098   0.004898
      7      -0.000053  -0.032943   0.023789  -0.175152  -0.155775  -0.111566
      8      -0.010779   0.005929  -0.102678   0.047309  -0.025283   0.021906
      9      -0.022642   0.009407   0.044515  -0.052999   0.092939   0.148427
     10      -0.022502   0.041881   0.056879   0.046431  -0.032724   0.101412
     11       0.012480  -0.012083  -0.027138   0.008247  -0.024843  -0.072139
     12       0.027541  -0.013437  -0.020802  -0.022404  -0.171298  -0.099733
     13      -0.035628   0.055685  -0.095383   0.058319   0.071816   0.027959
     14      -0.001890  -0.007135   0.027247  -0.004670   0.043322   0.028221
     15      -0.004644   0.046533   0.095722   0.124910  -0.291087   0.013043
     16       0.003681  -0.143023   0.013731  -0.004659  -0.066905  -0.157768
     17       0.000802   0.014262  -0.035550  -0.041627   0.113496   0.028864
     18       0.002369  -0.055554  -0.049860  -0.072777   0.157051   0.033217
     19      -0.002270  -0.049130   0.004534  -0.015438  -0.013648   0.053826
     20      -0.000334   0.029299   0.016040   0.028071  -0.050723  -0.022702
     21      -0.018220   0.002331  -0.131053   0.021788  -0.073408   0.001370
     22      -0.000519   0.000394  -0.004261   0.012928   0.009230  -0.006978
     23       0.006337  -0.000880   0.045666  -0.010185   0.023131   0.000979
     24       0.368665   0.222654  -0.477790  -0.469745  -0.114769   0.036161
     25       0.255750   0.212402  -0.194751  -0.298660   0.074087  -0.011928
     26      -0.179661  -0.120602   0.203978   0.223186   0.023844  -0.009767
     27      -0.493800   0.087728  -0.258562  -0.450092  -0.113595   0.278608
     28       0.273099  -0.039118   0.131205   0.230097   0.241436  -0.161911
     29       0.110936  -0.021762   0.060656   0.104892  -0.012067  -0.061069
     30      -0.361230  -0.120093  -0.307549   0.255079   0.478314  -0.296166
     31      -0.256073  -0.041339  -0.197924   0.271668   0.212096  -0.201825
     32       0.177061   0.049864   0.146402  -0.144066  -0.207767   0.143738
     33       0.374073  -0.308181  -0.488403   0.323070   0.352899  -0.085232
     34      -0.229451   0.226533   0.156408  -0.120168  -0.233974   0.017129
     35      -0.079239   0.057473   0.133485  -0.084696  -0.071209   0.025311
     36       0.006726   0.699345  -0.092245   0.051781   0.345020  -0.656569
     37      -0.000348   0.301601  -0.014340   0.045881   0.066953  -0.276626
     38      -0.002207  -0.301906   0.034519  -0.027171  -0.131836   0.282189
                 30         31         32         33         34         35    
      0      -0.151300  -0.102633  -0.101184  -0.260307  -0.046361  -0.002370
      1       0.017372  -0.110091  -0.212906  -0.054460   0.072774   0.002590
      2       0.047992   0.058267   0.079391   0.100343   0.000488   0.000261
      3       0.136919  -0.106027  -0.060750   0.296523  -0.001672   0.002897
      4       0.044560   0.120302   0.186966  -0.111705  -0.010812   0.006899
      5      -0.056161   0.010838  -0.018712  -0.077728   0.002849  -0.002444
      6      -0.014868   0.200219  -0.010557  -0.214983  -0.000225   0.002065
      7      -0.163414  -0.023961  -0.346362   0.048739  -0.000372   0.001503
      8       0.039537  -0.063384   0.076644   0.063202   0.000152  -0.001023
      9      -0.134219  -0.099841   0.125615   0.257220  -0.000851   0.029348
     10       0.065238  -0.098031   0.228731   0.063557   0.001528  -0.048464
     11       0.032066   0.054804  -0.091101  -0.101226  -0.000030   0.000198
     12       0.187920  -0.083825   0.049096  -0.301517   0.000459   0.023937
     13       0.000683   0.095472  -0.192931   0.104346  -0.000804   0.056180
     14      -0.064278   0.008468   0.023948   0.080939   0.000013  -0.020005
     15       0.004191   0.208377  -0.015666   0.233358  -0.003287   0.001941
     16      -0.153032  -0.005402   0.374464  -0.058366  -0.003157  -0.002240
     17       0.030814  -0.070031  -0.073582  -0.067366   0.001789  -0.000182
     18       0.020397  -0.049246  -0.017936  -0.033597   0.000340  -0.000131
     19       0.062646   0.009523  -0.052243   0.011486   0.000509   0.000293
     20      -0.020169   0.014781   0.017126   0.009050  -0.000224  -0.000016
     21       0.005470  -0.041375   0.005381   0.028933  -0.000057  -0.000267
     22       0.019391   0.000977   0.014209  -0.001516   0.000055  -0.000059
     23      -0.005962   0.013926  -0.004837  -0.009576   0.000007   0.000104
     24       0.219494   0.416381   0.272279   0.182412   0.533203   0.019086
     25       0.281313   0.204942   0.009652   0.238751  -0.827934  -0.028680
     26      -0.134170  -0.185271  -0.094799  -0.112520  -0.007550  -0.000475
     27      -0.191963   0.392238   0.200565  -0.295793   0.057442  -0.036587
     28       0.252477  -0.132506   0.069050   0.219148   0.128118  -0.077967
     29       0.012452  -0.105733  -0.082797   0.054869  -0.046562   0.028912
     30       0.033638   0.353083  -0.312701  -0.177094   0.012324  -0.365286
     31       0.214808   0.194025  -0.041455  -0.245539  -0.018358   0.546028
     32      -0.056725  -0.161338   0.115405   0.112181  -0.000338   0.009657
     33      -0.346283   0.364555  -0.205637   0.289153   0.002671  -0.298417
     34       0.320906  -0.132730  -0.082715  -0.228310   0.008547  -0.637702
     35       0.050547  -0.096178   0.087343  -0.050537  -0.002710   0.236087
     36      -0.483042  -0.158710   0.388974  -0.133397   0.008909  -0.000630
     37      -0.182065  -0.044582   0.154519  -0.043777  -0.004369  -0.001451
     38       0.203288   0.063825  -0.165162   0.054721  -0.002110   0.000508
                 36         37         38    
      0      -0.010549   0.000732   0.001149
      1       0.010209  -0.001502  -0.000883
      2       0.001456   0.000065  -0.000210
      3       0.035325  -0.001334  -0.000114
      4       0.074667  -0.003587   0.000058
      5      -0.027794   0.001210   0.000025
      6       0.003280  -0.002426  -0.000070
      7      -0.003920  -0.002996   0.000009
      8      -0.000288   0.001462   0.000022
      9      -0.005170  -0.039154  -0.000100
     10       0.007063   0.054491   0.000147
     11       0.000273   0.001888  -0.000001
     12      -0.000971   0.026661   0.000503
     13      -0.003256   0.050172  -0.000685
     14       0.001016  -0.019667  -0.000026
     15      -0.000765   0.002388  -0.000154
     16      -0.001015  -0.002455   0.002401
     17       0.000475  -0.000294  -0.000454
     18       0.000151  -0.000297  -0.028405
     19       0.000198   0.000242   0.055346
     20      -0.000092   0.000050  -0.001966
     21      -0.000424   0.000395   0.000116
     22       0.000180   0.000166   0.000015
     23       0.000107  -0.000170  -0.000040
     24       0.078779  -0.009064  -0.005169
     25      -0.116783   0.014410   0.004714
     26      -0.002299   0.000057   0.000779
     27      -0.397206   0.017716   0.000601
     28      -0.839973   0.038571   0.000417
     29       0.312545  -0.014178  -0.000292
     30       0.055142   0.416171   0.000116
     31      -0.080955  -0.614270  -0.000554
     32      -0.001775  -0.012673   0.000077
     33       0.015742  -0.269432   0.000382
     34       0.034635  -0.567075   0.000020
     35      -0.012668   0.211380  -0.000146
     36       0.001131  -0.001647   0.438255
     37      -0.001379  -0.000126  -0.895802
     38      -0.000112   0.000563   0.039210


-----------
IR SPECTRUM
-----------

 Mode   freq       eps      Int      T**2         TX        TY        TZ
       cm**-1   L/(mol*cm) km/mol    a.u.
----------------------------------------------------------------------------
  6:    182.78   0.000040    0.20  0.000068  ( 0.002902  0.001765  0.007519)
  7:    362.22   0.000794    4.01  0.000684  (-0.022940  0.011357  0.005378)
  8:    396.38   0.000102    0.51  0.000080  (-0.002857 -0.001624 -0.008323)
  9:    453.67   0.000069    0.35  0.000048  ( 0.002194  0.001390  0.006406)
 10:    460.70   0.000127    0.64  0.000086  ( 0.008174 -0.003704 -0.002286)
 11:    464.87   0.001166    5.89  0.000783  ( 0.024213  0.009551 -0.010255)
 12:    547.54   0.023754  120.04  0.013538  (-0.036985 -0.022474 -0.108007)
 13:    561.70   0.000098    0.49  0.000054  (-0.002384 -0.001741 -0.006758)
 14:    647.66   0.000110    0.56  0.000053  ( 0.006458  0.002098 -0.002621)
 15:    726.85   0.000018    0.09  0.000008  ( 0.000812  0.000530  0.002610)
 16:    753.15   0.010481   52.97  0.004343  (-0.062016 -0.003541  0.022008)
 17:    843.78   0.001857    9.38  0.000687  ( 0.008351  0.005188  0.024291)
 18:    861.05   0.000057    0.29  0.000021  (-0.003873 -0.001708  0.001611)
 19:    879.32   0.013096   66.18  0.004648  ( 0.021780  0.013532  0.063168)
 20:    964.11   0.000174    0.88  0.000056  (-0.002524 -0.001548 -0.006899)
 21:    993.13   0.000000    0.00  0.000000  (-0.000035 -0.000176  0.000099)
 22:   1011.75   0.000174    0.88  0.000054  (-0.006945 -0.000111  0.002327)
 23:   1104.08   0.003843   19.42  0.001086  (-0.013055  0.030203 -0.001848)
 24:   1157.69   0.000066    0.33  0.000018  ( 0.001991  0.003433 -0.001409)
 25:   1217.85   0.024543  124.03  0.006289  ( 0.073140  0.013176 -0.027674)
 26:   1251.66   0.026639  134.62  0.006642  ( 0.077215 -0.002269 -0.025969)
 27:   1303.13   0.004702   23.76  0.001126  ( 0.031438  0.002952 -0.011351)
 28:   1307.62   0.000917    4.63  0.000219  (-0.013831  0.003362  0.004024)
 29:   1370.15   0.010578   53.45  0.002409  (-0.045744  0.012130  0.013018)
 30:   1472.38   0.008455   42.73  0.001792  (-0.039425 -0.005130  0.014541)
 31:   1545.95   0.049782  251.58  0.010049  ( 0.094678  0.002619 -0.032833)
 32:   1644.47   0.000896    4.53  0.000170  ( 0.012368 -0.000569 -0.004100)
 33:   1674.56   0.000337    1.70  0.000063  ( 0.007512 -0.000788 -0.002388)
 34:   3119.95   0.001847    9.33  0.000185  (-0.011816  0.006136  0.002737)
 35:   3156.70   0.000439    2.22  0.000043  ( 0.006084  0.001064 -0.002290)
 36:   3165.78   0.000094    0.48  0.000009  ( 0.002506  0.001306 -0.001134)
 37:   3169.29   0.000030    0.15  0.000003  (-0.000766  0.001539 -0.000074)
 38:   3720.66   0.015284   77.24  0.001282  ( 0.026882 -0.023256 -0.004284)

* The epsilon (eps) is given for a Dirac delta lineshape.
** The dipole moment derivative (T) already includes vibrational overlap.

The first frequency considered to be a vibration is 6
The total number of vibrations considered is 33


--------------------------
THERMOCHEMISTRY AT 298.15K
--------------------------

Temperature         ... 298.15 K
Pressure            ... 1.00 atm
Total Mass          ... 112.10 AMU

Throughout the following assumptions are being made:
  (1) The electronic state is orbitally nondegenerate
  (2) There are no thermally accessible electronically excited states
  (3) Hindered rotations indicated by low frequency modes are not
      treated as such but are treated as vibrations and this may
      cause some error
  (4) All equations used are the standard statistical mechanics
      equations for an ideal gas
  (5) All vibrations are strictly harmonic

freq.     182.78  E(vib)   ...       0.37 
freq.     362.22  E(vib)   ...       0.22 
freq.     396.38  E(vib)   ...       0.20 
freq.     453.67  E(vib)   ...       0.16 
freq.     460.70  E(vib)   ...       0.16 
freq.     464.87  E(vib)   ...       0.16 
freq.     547.54  E(vib)   ...       0.12 
freq.     561.70  E(vib)   ...       0.11 
freq.     647.66  E(vib)   ...       0.09 
freq.     726.85  E(vib)   ...       0.06 
freq.     753.15  E(vib)   ...       0.06 
freq.     843.78  E(vib)   ...       0.04 
freq.     861.05  E(vib)   ...       0.04 
freq.     879.32  E(vib)   ...       0.04 
freq.     964.11  E(vib)   ...       0.03 
freq.     993.13  E(vib)   ...       0.02 
freq.    1011.75  E(vib)   ...       0.02 
freq.    1104.08  E(vib)   ...       0.02 
freq.    1157.69  E(vib)   ...       0.01 
freq.    1217.85  E(vib)   ...       0.01 
freq.    1251.66  E(vib)   ...       0.01 
freq.    1303.13  E(vib)   ...       0.01 
freq.    1307.62  E(vib)   ...       0.01 
freq.    1370.15  E(vib)   ...       0.01 
freq.    1472.38  E(vib)   ...       0.00 
freq.    1545.95  E(vib)   ...       0.00 
freq.    1644.47  E(vib)   ...       0.00 
freq.    1674.56  E(vib)   ...       0.00 
freq.    3119.95  E(vib)   ...       0.00 
freq.    3156.70  E(vib)   ...       0.00 
freq.    3165.78  E(vib)   ...       0.00 
freq.    3169.29  E(vib)   ...       0.00 
freq.    3720.66  E(vib)   ...       0.00 

------------
INNER ENERGY
------------

The inner energy is: U= E(el) + E(ZPE) + E(vib) + E(rot) + E(trans)
    E(el)   - is the total energy from the electronic structure calculation
              = E(kin-el) + E(nuc-el) + E(el-el) + E(nuc-nuc)
    E(ZPE)  - the the zero temperature vibrational energy from the frequency calculation
    E(vib)  - the the finite temperature correction to E(ZPE) due to population
              of excited vibrational states
    E(rot)  - is the rotational thermal energy
    E(trans)- is the translational thermal energy

Summary of contributions to the inner energy U:
Electronic energy                ...   -405.97251507 Eh
Zero point energy                ...      0.09680523 Eh      60.75 kcal/mol
Thermal vibrational correction   ...      0.00314217 Eh       1.97 kcal/mol
Thermal rotational correction    ...      0.00141627 Eh       0.89 kcal/mol
Thermal translational correction ...      0.00141627 Eh       0.89 kcal/mol
-----------------------------------------------------------------------
Total thermal energy                   -405.86973513 Eh


Summary of corrections to the electronic energy:
(perhaps to be used in another calculation)
Total thermal correction                  0.00597471 Eh       3.75 kcal/mol
Non-thermal (ZPE) correction              0.09680523 Eh      60.75 kcal/mol
-----------------------------------------------------------------------
Total correction                          0.10277994 Eh      64.50 kcal/mol


--------
ENTHALPY
--------

The enthalpy is H = U + kB*T
                kB is Boltzmann's constant
Total free energy                 ...   -405.86973513 Eh 
Thermal Enthalpy correction       ...      0.00094421 Eh       0.59 kcal/mol
-----------------------------------------------------------------------
Total Enthalpy                    ...   -405.86879092 Eh


Note: Only C1 symmetry has been detected, increase convergence thresholds 
      if your molecule has a higher symmetry. Symmetry factor of 1.0 is   
      used for the rotational entropy correction. 
 

Note: Rotational entropy computed according to Herzberg 
Infrared and Raman Spectra, Chapter V,1, Van Nostrand Reinhold, 1945 
Point Group:  C1, Symmetry Number:   1  
Rotational constants in cm-1:     0.185107     0.047741     0.037953 

Vibrational entropy computed according to the QRRHO of S. Grimme
Chem.Eur.J. 2012 18 9955


-------
ENTROPY
-------

The entropy contributions are T*S = T*(S(el)+S(vib)+S(rot)+S(trans))
     S(el)   - electronic entropy
     S(vib)  - vibrational entropy
     S(rot)  - rotational entropy
     S(trans)- translational entropy
The entropies will be listed as multiplied by the temperature to get
units of energy

Electronic entropy                ...      0.00000000 Eh      0.00 kcal/mol
Vibrational entropy               ...      0.00462777 Eh      2.90 kcal/mol
Rotational entropy                ...      0.01328762 Eh      8.34 kcal/mol
Translational entropy             ...      0.01903305 Eh     11.94 kcal/mol
-----------------------------------------------------------------------
Final entropy term                ...      0.03694844 Eh     23.19 kcal/mol

In case the symmetry of your molecule has not been determined correctly
or in case you have a reason to use a different symmetry number we print 
out the resulting rotational entropy values for sn=1,12 :
 --------------------------------------------------------
|  sn= 1 | S(rot)=       0.01328762 Eh      8.34 kcal/mol|
|  sn= 2 | S(rot)=       0.01263317 Eh      7.93 kcal/mol|
|  sn= 3 | S(rot)=       0.01225033 Eh      7.69 kcal/mol|
|  sn= 4 | S(rot)=       0.01197871 Eh      7.52 kcal/mol|
|  sn= 5 | S(rot)=       0.01176802 Eh      7.38 kcal/mol|
|  sn= 6 | S(rot)=       0.01159588 Eh      7.28 kcal/mol|
|  sn= 7 | S(rot)=       0.01145033 Eh      7.19 kcal/mol|
|  sn= 8 | S(rot)=       0.01132425 Eh      7.11 kcal/mol|
|  sn= 9 | S(rot)=       0.01121304 Eh      7.04 kcal/mol|
|  sn=10 | S(rot)=       0.01111357 Eh      6.97 kcal/mol|
|  sn=11 | S(rot)=       0.01102358 Eh      6.92 kcal/mol|
|  sn=12 | S(rot)=       0.01094142 Eh      6.87 kcal/mol|
 --------------------------------------------------------


-------------------
GIBBS FREE ENERGY
-------------------

The Gibbs free energy is G = H - T*S

Total enthalpy                    ...   -405.86879092 Eh 
Total entropy correction          ...     -0.03694844 Eh    -23.19 kcal/mol
-----------------------------------------------------------------------
Final Gibbs free energy         ...   -405.90573935 Eh

For completeness - the Gibbs free energy minus the electronic energy
G-E(el)                           ...      0.06677571 Eh     41.90 kcal/mol


Timings for individual modules:

Sum of individual times         ...       33.599 sec (=   0.560 min)
GTO integral calculation        ...        1.400 sec (=   0.023 min)   4.2 %
SCF iterations                  ...        6.024 sec (=   0.100 min)  17.9 %
Analytical frequency calculation...       26.174 sec (=   0.436 min)  77.9 %
                             ****ORCA TERMINATED NORMALLY****
TOTAL RUN TIME: 0 days 0 hours 0 minutes 35 seconds 63 msec
