
                                 *****************
                                 * O   R   C   A *
                                 *****************

                                            #,                                       
                                            ###                                      
                                            ####                                     
                                            #####                                    
                                            ######                                   
                                           ########,                                 
                                     ,,################,,,,,                         
                               ,,#################################,,                 
                          ,,##########################################,,             
                       ,#########################################, ''#####,          
                    ,#############################################,,   '####,        
                  ,##################################################,,,,####,       
                ,###########''''           ''''###############################       
              ,#####''   ,,,,##########,,,,          '''####'''          '####       
            ,##' ,,,,###########################,,,                        '##       
           ' ,,###''''                  '''############,,,                           
         ,,##''                                '''############,,,,        ,,,,,,###''
      ,#''                                            '''#######################'''  
     '                                                          ''''####''''         
             ,#######,   #######,   ,#######,      ##                                
            ,#'     '#,  ##    ##  ,#'     '#,    #''#        ######   ,####,        
            ##       ##  ##   ,#'  ##            #'  '#       #        #'  '#        
            ##       ##  #######   ##           ,######,      #####,   #    #        
            '#,     ,#'  ##    ##  '#,     ,#' ,#      #,         ##   #,  ,#        
             '#######'   ##     ##  '#######'  #'      '#     #####' # '####'        



                  #######################################################
                  #                        -***-                        #
                  #          Department of theory and spectroscopy      #
                  #    Directorship and core code : Frank Neese         #
                  #        Max Planck Institute fuer Kohlenforschung    #
                  #                Kaiser Wilhelm Platz 1               #
                  #                 D-45470 Muelheim/Ruhr               #
                  #                      Germany                        #
                  #                                                     #
                  #                  All rights reserved                #
                  #                        -***-                        #
                  #######################################################


                         Program Version 5.0.1 -  RELEASE  -


 With contributions from (in alphabetic order):
   Daniel Aravena         : Magnetic Suceptibility
   Michael Atanasov       : Ab Initio Ligand Field Theory (pilot matlab implementation)
   Alexander A. Auer      : GIAO ZORA, VPT2 properties, NMR spectrum
   Ute Becker             : Parallelization
   Giovanni Bistoni       : ED, misc. LED, open-shell LED, HFLD
   Martin Brehm           : Molecular dynamics
   Dmytro Bykov           : SCF Hessian
   Vijay G. Chilkuri      : MRCI spin determinant printing, contributions to CSF-ICE
   Dipayan Datta          : RHF DLPNO-CCSD density
   Achintya Kumar Dutta   : EOM-CC, STEOM-CC
   Dmitry Ganyushin       : Spin-Orbit,Spin-Spin,Magnetic field MRCI
   Miquel Garcia          : C-PCM and meta-GGA Hessian, CC/C-PCM, Gaussian charge scheme
   Yang Guo               : DLPNO-NEVPT2, F12-NEVPT2, CIM, IAO-localization
   Andreas Hansen         : Spin unrestricted coupled pair/coupled cluster methods
   Benjamin Helmich-Paris : MC-RPA, TRAH-SCF, COSX integrals
   Lee Huntington         : MR-EOM, pCC
   Robert Izsak           : Overlap fitted RIJCOSX, COSX-SCS-MP3, EOM
   Marcus Kettner         : VPT2
   Christian Kollmar      : KDIIS, OOCD, Brueckner-CCSD(T), CCSD density, CASPT2, CASPT2-K
   Simone Kossmann        : Meta GGA functionals, TD-DFT gradient, OOMP2, MP2 Hessian
   Martin Krupicka        : Initial AUTO-CI
   Lucas Lang             : DCDCAS
   Marvin Lechner         : AUTO-CI (C++ implementation), FIC-MRCC
   Dagmar Lenk            : GEPOL surface, SMD
   Dimitrios Liakos       : Extrapolation schemes; Compound Job, initial MDCI parallelization
   Dimitrios Manganas     : Further ROCIS development; embedding schemes
   Dimitrios Pantazis     : SARC Basis sets
   Anastasios Papadopoulos: AUTO-CI, single reference methods and gradients
   Taras Petrenko         : DFT Hessian,TD-DFT gradient, ASA, ECA, R-Raman, ABS, FL, XAS/XES, NRVS
   Peter Pinski           : DLPNO-MP2, DLPNO-MP2 Gradient
   Christoph Reimann      : Effective Core Potentials
   Marius Retegan         : Local ZFS, SOC
   Christoph Riplinger    : Optimizer, TS searches, QM/MM, DLPNO-CCSD(T), (RO)-DLPNO pert. Triples
   Tobias Risthaus        : Range-separated hybrids, TD-DFT gradient, RPA, STAB
   Michael Roemelt        : Original ROCIS implementation
   Masaaki Saitow         : Open-shell DLPNO-CCSD energy and density
   Barbara Sandhoefer     : DKH picture change effects
   Avijit Sen             : IP-ROCIS
   Kantharuban Sivalingam : CASSCF convergence, NEVPT2, FIC-MRCI
   Bernardo de Souza      : ESD, SOC TD-DFT
   Georgi Stoychev        : AutoAux, RI-MP2 NMR, DLPNO-MP2 response
   Willem Van den Heuvel  : Paramagnetic NMR
   Boris Wezisla          : Elementary symmetry handling
   Frank Wennmohs         : Technical directorship


 We gratefully acknowledge several colleagues who have allowed us to
 interface, adapt or use parts of their codes:
   Stefan Grimme, W. Hujo, H. Kruse, P. Pracht,  : VdW corrections, initial TS optimization,
                  C. Bannwarth, S. Ehlert          DFT functionals, gCP, sTDA/sTD-DF
   Ed Valeev, F. Pavosevic, A. Kumar             : LibInt (2-el integral package), F12 methods
   Garnet Chan, S. Sharma, J. Yang, R. Olivares  : DMRG
   Ulf Ekstrom                                   : XCFun DFT Library
   Mihaly Kallay                                 : mrcc  (arbitrary order and MRCC methods)
   Jiri Pittner, Ondrej Demel                    : Mk-CCSD
   Frank Weinhold                                : gennbo (NPA and NBO analysis)
   Christopher J. Cramer and Donald G. Truhlar   : smd solvation model
   Lars Goerigk                                  : TD-DFT with DH, B97 family of functionals
   V. Asgeirsson, H. Jonsson                     : NEB implementation
   FAccTs GmbH                                   : IRC, NEB, NEB-TS, DLPNO-Multilevel, CI-OPT
                                                   MM, QMMM, 2- and 3-layer-ONIOM, Crystal-QMMM,
                                                   LR-CPCM, SF, NACMEs, symmetry and pop. for TD-DFT,
                                                   nearIR, NL-DFT gradient (VV10), updates on ESD,
                                                   ML-optimized integration grids
   S Lehtola, MJT Oliveira, MAL Marques          : LibXC Library
   Liviu Ungur et al                             : ANISO software


 Your calculation uses the libint2 library for the computation of 2-el integrals
 For citations please refer to: http://libint.valeyev.net

 Your ORCA version has been built with support for libXC version: 5.1.0
 For citations please refer to: https://tddft.org/programs/libxc/

 This ORCA versions uses:
   CBLAS   interface :  Fast vector & matrix operations
   LAPACKE interface :  Fast linear algebra routines
   SCALAPACK package :  Parallel linear algebra routines
   Shared memory     :  Shared parallel matrices
   BLAS/LAPACK       :  OpenBLAS 0.3.15  USE64BITINT DYNAMIC_ARCH NO_AFFINITY Zen SINGLE_THREADED
        Core in use  :  Zen
   Copyright (c) 2011-2014, The OpenBLAS Project


Your calculation utilizes the atom-pairwise dispersion correction
based on tight binding partial charges (D4)
Cite in your paper:
E.Caldeweyher, C.Bannwarth, S.Grimme, J.Chem.Phys., (2017), 147, 034112.
E.Caldeweyher, S.Ehlert, A.Hansen, H.Neugebauer, S.Grimme, J.Chem.Phys., (2018), in progress.
   

================================================================================

----- Orbital basis set information -----
Your calculation utilizes the basis: def2-SVP
   F. Weigend and R. Ahlrichs, Phys. Chem. Chem. Phys. 7, 3297 (2005).

----- AuxJ basis set information -----
Your calculation utilizes the auxiliary basis: def2/J
   F. Weigend, Phys. Chem. Chem. Phys. 8, 1057 (2006).

================================================================================
                                        WARNINGS
                       Please study these warnings very carefully!
================================================================================



WARNING: Found flag for RIJCOSX approximation but no HF exchange needed!
  ===> : RIJCOSX  will be disabled and Split-RI-J is turned on

WARNING: Geometry Optimization
  ===> : Switching off AutoStart
         For restart on a previous wavefunction, please use MOREAD

INFO   : the flag for use of the SHARK integral package has been found!

================================================================================
                                       INPUT FILE
================================================================================
NAME = p-fluorophenol_opt_orca.inp
|  1> ! Opt BP86 def2-SVP def2/J RIJCOSX D4
|  2> %geom MaxIter 100 end
|  3> %output 
|  4> xyzfile=True 
|  5> end 
|  6> %scf 
|  7> maxiter 250 
|  8> end
|  9> %output
| 10> Print[P_Hirshfeld] = 1
| 11> end
| 12> % maxcore
| 13> 4000
| 14> %pal nprocs 8
| 15> end
| 16> *xyz 0 1
| 17> C    0.52601396  -1.10499033   0.05424617 
| 18> C   -0.77962919  -1.14833725   0.50844850 
| 19> C   -1.52225388   0.01662773   0.51595074 
| 20> C   -0.99375235   1.21985668   0.08271808 
| 21> C    0.30984909   1.25566826  -0.36974521 
| 22> C    1.07700434   0.09330021  -0.38709760 
| 23> O    2.35388366   0.17495255  -0.84427136 
| 24> F   -2.79922504  -0.02073981   0.95826922 
| 25> H    1.12078522  -2.00839083   0.04183330 
| 26> H   -1.21929080  -2.07084246   0.85235713 
| 27> H   -1.60132650   2.11029792   0.10249230 
| 28> H    0.75339309   2.17529078  -0.71475402 
| 29> H    2.77444840  -0.69259345  -0.80044725 
| 30> *
| 31> 
| 32>                          ****END OF INPUT****
================================================================================

                       *****************************
                       * Geometry Optimization Run *
                       *****************************

Geometry optimization settings:
Update method            Update   .... BFGS
Choice of coordinates    CoordSys .... Z-matrix Internals
Initial Hessian          InHess   .... Almoef's Model

Convergence Tolerances:
Energy Change            TolE     ....  5.0000e-06 Eh
Max. Gradient            TolMAXG  ....  3.0000e-04 Eh/bohr
RMS Gradient             TolRMSG  ....  1.0000e-04 Eh/bohr
Max. Displacement        TolMAXD  ....  4.0000e-03 bohr
RMS Displacement         TolRMSD  ....  2.0000e-03 bohr
Strict Convergence                ....  False
------------------------------------------------------------------------------
                        ORCA OPTIMIZATION COORDINATE SETUP
------------------------------------------------------------------------------

The optimization will be done in new redundant internal coordinates
Making redundant internal coordinates   ...  (new redundants) done
Evaluating the initial hessian          ...  (Almloef) done
Evaluating the coordinates              ...  done
Calculating the B-matrix                .... done
Calculating the G-matrix                .... done
Diagonalizing the G-matrix              .... done
The first mode is                       ....   25
The number of degrees of freedom        ....   33

    -----------------------------------------------------------------
                    Redundant Internal Coordinates


    -----------------------------------------------------------------
         Definition                    Initial Value    Approx d2E/dq
    -----------------------------------------------------------------
      1. B(C   1,C   0)                  1.3831         0.640907   
      2. B(C   2,C   1)                  1.3816         0.644486   
      3. B(C   3,C   2)                  1.3838         0.639308   
      4. B(C   4,C   3)                  1.3804         0.647329   
      5. B(C   5,C   4)                  1.3928         0.618373   
      6. B(C   5,C   0)                  1.3908         0.623004   
      7. B(O   6,C   5)                  1.3587         0.627762   
      8. B(F   7,C   2)                  1.3519         0.598019   
      9. B(H   8,C   0)                  1.0817         0.371271   
     10. B(H   9,C   1)                  1.0782         0.376004   
     11. B(H  10,C   3)                  1.0782         0.376112   
     12. B(H  11,C   4)                  1.0777         0.376725   
     13. B(H  12,O   6)                  0.9651         0.510292   
     14. A(C   1,C   0,H   8)          119.7798         0.356742   
     15. A(C   1,C   0,C   5)          120.3454         0.437046   
     16. A(C   5,C   0,H   8)          119.8748         0.355031   
     17. A(C   0,C   1,C   2)          118.8679         0.439727   
     18. A(C   0,C   1,H   9)          121.0973         0.357511   
     19. A(C   2,C   1,H   9)          120.0348         0.357850   
     20. A(C   1,C   2,C   3)          121.7505         0.439529   
     21. A(C   3,C   2,F   7)          119.1586         0.428897   
     22. A(C   1,C   2,F   7)          119.0909         0.429519   
     23. A(C   2,C   3,H  10)          119.8132         0.357377   
     24. A(C   2,C   3,C   4)          119.0703         0.439878   
     25. A(C   4,C   3,H  10)          121.1165         0.358135   
     26. A(C   3,C   4,C   5)          120.1722         0.437244   
     27. A(C   5,C   4,H  11)          118.7803         0.355460   
     28. A(C   3,C   4,H  11)          121.0475         0.358234   
     29. A(C   0,C   5,O   6)          122.0640         0.432567   
     30. A(C   0,C   5,C   4)          119.7936         0.434238   
     31. A(C   4,C   5,O   6)          118.1422         0.431988   
     32. A(C   5,O   6,H  12)          109.8906         0.369714   
     33. D(H   9,C   1,C   0,C   5)    179.9345         0.028545   
     34. D(H   9,C   1,C   0,H   8)     -0.0186         0.028545   
     35. D(C   2,C   1,C   0,H   8)   -179.9911         0.028545   
     36. D(C   2,C   1,C   0,C   5)     -0.0380         0.028545   
     37. D(F   7,C   2,C   1,C   0)    179.9618         0.028886   
     38. D(C   3,C   2,C   1,C   0)     -0.0285         0.028886   
     39. D(C   3,C   2,C   1,H   9)    179.9988         0.028886   
     40. D(F   7,C   2,C   1,H   9)     -0.0110         0.028886   
     41. D(H  10,C   3,C   2,F   7)      0.0349         0.028393   
     42. D(H  10,C   3,C   2,C   1)   -179.9749         0.028393   
     43. D(C   4,C   3,C   2,F   7)   -179.9377         0.028393   
     44. D(C   4,C   3,C   2,C   1)      0.0525         0.028393   
     45. D(H  11,C   4,C   3,C   2)    179.9787         0.029159   
     46. D(C   5,C   4,C   3,H  10)   -179.9823         0.029159   
     47. D(C   5,C   4,C   3,C   2)     -0.0101         0.029159   
     48. D(H  11,C   4,C   3,H  10)      0.0064         0.029159   
     49. D(O   6,C   5,C   4,H  11)     -0.1749         0.026452   
     50. D(C   0,C   5,C   4,H  11)    179.9562         0.026452   
     51. D(C   0,C   5,C   4,C   3)     -0.0549         0.026452   
     52. D(O   6,C   5,C   0,H   8)      0.1688         0.026874   
     53. D(O   6,C   5,C   0,C   1)   -179.7843         0.026874   
     54. D(O   6,C   5,C   4,C   3)    179.8141         0.026452   
     55. D(C   4,C   5,C   0,H   8)   -179.9676         0.026874   
     56. D(C   4,C   5,C   0,C   1)      0.0793         0.026874   
     57. D(H  12,O   6,C   5,C   4)    179.7417         0.028966   
     58. D(H  12,O   6,C   5,C   0)     -0.3926         0.028966   
    -----------------------------------------------------------------

Number of atoms                         .... 13
Number of degrees of freedom            .... 58

         *************************************************************
         *                GEOMETRY OPTIMIZATION CYCLE   1            *
         *************************************************************
---------------------------------
CARTESIAN COORDINATES (ANGSTROEM)
---------------------------------
  C      0.526014   -1.104990    0.054246
  C     -0.779629   -1.148337    0.508448
  C     -1.522254    0.016628    0.515951
  C     -0.993752    1.219857    0.082718
  C      0.309849    1.255668   -0.369745
  C      1.077004    0.093300   -0.387098
  O      2.353884    0.174953   -0.844271
  F     -2.799225   -0.020740    0.958269
  H      1.120785   -2.008391    0.041833
  H     -1.219291   -2.070842    0.852357
  H     -1.601326    2.110298    0.102492
  H      0.753393    2.175291   -0.714754
  H      2.774448   -0.692593   -0.800447

----------------------------
CARTESIAN COORDINATES (A.U.)
----------------------------
  NO LB      ZA    FRAG     MASS         X           Y           Z
   0 C     6.0000    0    12.011    0.994022   -2.088129    0.102510
   1 C     6.0000    0    12.011   -1.473286   -2.170043    0.960828
   2 C     6.0000    0    12.011   -2.876643    0.031422    0.975006
   3 C     6.0000    0    12.011   -1.877920    2.305195    0.156315
   4 C     6.0000    0    12.011    0.585530    2.372869   -0.698717
   5 C     6.0000    0    12.011    2.035243    0.176312   -0.731508
   6 O     8.0000    0    15.999    4.448195    0.330612   -1.595442
   7 F     9.0000    0    18.998   -5.289769   -0.039193    1.810866
   8 H     1.0000    0     1.008    2.117977   -3.795309    0.079053
   9 H     1.0000    0     1.008   -2.304126   -3.913325    1.610722
  10 H     1.0000    0     1.008   -3.026069    3.987885    0.193682
  11 H     1.0000    0     1.008    1.423707    4.110704   -1.350689
  12 H     1.0000    0     1.008    5.242948   -1.308812   -1.512626

--------------------------------
INTERNAL COORDINATES (ANGSTROEM)
--------------------------------
 C      0   0   0     0.000000000000     0.00000000     0.00000000
 C      1   0   0     1.383070044211     0.00000000     0.00000000
 C      2   1   0     1.381553878222   118.86793320     0.00000000
 C      3   2   1     1.383750089800   121.75051517   359.97154058
 C      4   3   2     1.380355828194   119.07025225     0.05248924
 C      1   2   3     1.390782132623   120.34536764   359.96203359
 O      6   1   2     1.358711061743   122.06398987   180.21571019
 F      3   2   1     1.351923560808   119.09092015   179.96175910
 H      1   2   3     1.081683592583   119.77980389   180.00893266
 H      2   1   3     1.078235289523   121.09730005   179.97247638
 H      4   3   2     1.078157209973   119.81320943   180.02511705
 H      5   4   3     1.077714219172   121.04745732   179.97865017
 H      7   6   1     0.965106893181   109.89060622   359.60743491

---------------------------
INTERNAL COORDINATES (A.U.)
---------------------------
 C      0   0   0     0.000000000000     0.00000000     0.00000000
 C      1   0   0     2.613623607588     0.00000000     0.00000000
 C      2   1   0     2.610758469096   118.86793320     0.00000000
 C      3   2   1     2.614908707511   121.75051517   359.97154058
 C      4   3   2     2.608494482649   119.07025225     0.05248924
 C      1   2   3     2.628197342609   120.34536764   359.96203359
 O      6   1   2     2.567591801824   122.06398987   180.21571019
 F      3   2   1     2.554765283922   119.09092015   179.96175910
 H      1   2   3     2.044085753538   119.77980389   180.00893266
 H      2   1   3     2.037569405128   121.09730005   179.97247638
 H      4   3   2     2.037421856162   119.81320943   180.02511705
 H      5   4   3     2.036584724867   121.04745732   179.97865017
 H      7   6   1     1.823787718071   109.89060622   359.60743491

---------------------
BASIS SET INFORMATION
---------------------
There are 4 groups of distinct atoms

 Group   1 Type C   : 7s4p1d contracted to 3s2p1d pattern {511/31/1}
 Group   2 Type O   : 7s4p1d contracted to 3s2p1d pattern {511/31/1}
 Group   3 Type F   : 7s4p1d contracted to 3s2p1d pattern {511/31/1}
 Group   4 Type H   : 4s1p contracted to 2s1p pattern {31/1}

Atom   0C    basis set group =>   1
Atom   1C    basis set group =>   1
Atom   2C    basis set group =>   1
Atom   3C    basis set group =>   1
Atom   4C    basis set group =>   1
Atom   5C    basis set group =>   1
Atom   6O    basis set group =>   2
Atom   7F    basis set group =>   3
Atom   8H    basis set group =>   4
Atom   9H    basis set group =>   4
Atom  10H    basis set group =>   4
Atom  11H    basis set group =>   4
Atom  12H    basis set group =>   4
---------------------------------
AUXILIARY/J BASIS SET INFORMATION
---------------------------------
There are 4 groups of distinct atoms

 Group   1 Type C   : 12s5p4d2f1g contracted to 6s4p3d1f1g pattern {711111/2111/211/2/1}
 Group   2 Type O   : 12s5p4d2f1g contracted to 6s4p3d1f1g pattern {711111/2111/211/2/1}
 Group   3 Type F   : 12s5p4d2f1g contracted to 6s4p3d1f1g pattern {711111/2111/211/2/1}
 Group   4 Type H   : 5s2p1d contracted to 3s1p1d pattern {311/2/1}

Atom   0C    basis set group =>   1
Atom   1C    basis set group =>   1
Atom   2C    basis set group =>   1
Atom   3C    basis set group =>   1
Atom   4C    basis set group =>   1
Atom   5C    basis set group =>   1
Atom   6O    basis set group =>   2
Atom   7F    basis set group =>   3
Atom   8H    basis set group =>   4
Atom   9H    basis set group =>   4
Atom  10H    basis set group =>   4
Atom  11H    basis set group =>   4
Atom  12H    basis set group =>   4


           ************************************************************
           *        Program running with 8 parallel MPI-processes     *
           *              working on a common directory               *
           ************************************************************
------------------------------------------------------------------------------
                           ORCA GTO INTEGRAL CALCULATION
                           -- RI-GTO INTEGRALS CHOSEN --
------------------------------------------------------------------------------
------------------------------------------------------------------------------
                   ___                                                        
                  /   \      - P O W E R E D   B Y -                         
                 /     \                                                     
                 |  |  |   _    _      __       _____    __    __             
                 |  |  |  | |  | |    /  \     |  _  \  |  |  /  |          
                  \  \/   | |  | |   /    \    | | | |  |  | /  /          
                 / \  \   | |__| |  /  /\  \   | |_| |  |  |/  /          
                |  |  |   |  __  | /  /__\  \  |    /   |      \           
                |  |  |   | |  | | |   __   |  |    \   |  |\   \          
                \     /   | |  | | |  |  |  |  | |\  \  |  | \   \       
                 \___/    |_|  |_| |__|  |__|  |_| \__\ |__|  \__/        
                                                                              
                      - O R C A' S   B I G   F R I E N D -                    
                                      &                                       
                       - I N T E G R A L  F E E D E R -                       
                                                                              
 v1 FN, 2020, v2 2021                                                         
------------------------------------------------------------------------------


Reading SHARK input file p-fluorophenol_opt_orca.SHARKINP.tmp ... ok
----------------------
SHARK INTEGRAL PACKAGE
----------------------

Number of atoms                             ...     13
Number of basis functions                   ...    137
Number of shells                            ...     63
Maximum angular momentum                    ...      2
Integral batch strategy                     ... SHARK/LIBINT Hybrid
RI-J (if used) integral strategy            ... SPLIT-RIJ (Revised 2003 algorithm where possible)
Printlevel                                  ...      1
Contraction scheme used                     ... SEGMENTED contraction
Coulomb Range Separation                    ... NOT USED
Exchange Range Separation                   ... NOT USED
Finite Nucleus Model                        ... NOT USED
Auxiliary Coulomb fitting basis             ... AVAILABLE
   # of basis functions in Aux-J            ...    447
   # of shells in Aux-J                     ...    145
   Maximum angular momentum in Aux-J        ...      4
Auxiliary J/K fitting basis                 ... NOT available
Auxiliary Correlation fitting basis         ... NOT available
Auxiliary 'external' fitting basis          ... NOT available
Integral threshold                          ...     2.500000e-11
Primitive cut-off                           ...     2.500000e-12
Primitive pair pre-selection threshold      ...     2.500000e-12

Calculating pre-screening integrals         ... done (  0.0 sec) Dimension = 63
Organizing shell pair data                  ... done (  0.0 sec)
Shell pair information
Total number of shell pairs                 ...      2016
Shell pairs after pre-screening             ...      1908
Total number of primitive shell pairs       ...      7500
Primitive shell pairs kept                  ...      5274
          la=0 lb=0:    556 shell pairs
          la=1 lb=0:    679 shell pairs
          la=1 lb=1:    222 shell pairs
          la=2 lb=0:    255 shell pairs
          la=2 lb=1:    161 shell pairs
          la=2 lb=2:     35 shell pairs

Calculating one electron integrals          ... done (  0.0 sec)
Calculating RI/J V-Matrix + Cholesky decomp.... done (  0.0 sec)
Calculating Nuclear repulsion               ... done (  0.0 sec) ENN=    344.297418724101 Eh

SHARK setup successfully completed in   0.1 seconds

Maximum memory used throughout the entire GTOINT-calculation: 8.9 MB


           ************************************************************
           *        Program running with 8 parallel MPI-processes     *
           *              working on a common directory               *
           ************************************************************
-------------------------------------------------------------------------------
                                 ORCA SCF
-------------------------------------------------------------------------------

------------
SCF SETTINGS
------------
Hamiltonian:
 Density Functional     Method          .... DFT(GTOs)
 Exchange Functional    Exchange        .... B88
   X-Alpha parameter    XAlpha          ....  0.666667
   Becke's b parameter  XBeta           ....  0.004200
 Correlation Functional Correlation     .... P86
 LDA part of GGA corr.  LDAOpt          .... PW91-LDA
 Gradients option       PostSCFGGA      .... off
   Density functional embedding theory  .... OFF
 RI-approximation to the Coulomb term is turned on
   Number of AuxJ basis functions       .... 447


General Settings:
 Integral files         IntName         .... p-fluorophenol_opt_orca
 Hartree-Fock type      HFTyp           .... RHF
 Total Charge           Charge          ....    0
 Multiplicity           Mult            ....    1
 Number of Electrons    NEL             ....   58
 Basis Dimension        Dim             ....  137
 Nuclear Repulsion      ENuc            ....    344.2974187241 Eh

Convergence Acceleration:
 DIIS                   CNVDIIS         .... on
   Start iteration      DIISMaxIt       ....    12
   Startup error        DIISStart       ....  0.200000
   # of expansion vecs  DIISMaxEq       ....     5
   Bias factor          DIISBfac        ....   1.050
   Max. coefficient     DIISMaxC        ....  10.000
 Trust-Rad. Augm. Hess. CNVTRAH         .... auto
   Auto Start mean grad. ratio tolernc. ....  1.125000
   Auto Start start iteration           ....    20
   Auto Start num. interpolation iter.  ....    10
   Max. Number of Micro iterations      ....    16
   Max. Number of Macro iterations      .... Maxiter - #DIIS iter
   Number of Davidson start vectors     ....     2
   Converg. threshold I  (grad. norm)   ....   1.000e-05
   Converg. threshold II (energy diff.) ....   1.000e-08
   Grad. Scal. Fac. for Micro threshold ....   0.100
   Minimum threshold for Micro iter.    ....   0.010
   NR start threshold (gradient norm)   ....   0.001
   Initial trust radius                 ....   0.400
   Minimum AH scaling param. (alpha)    ....   1.000
   Maximum AH scaling param. (alpha)    .... 1000.000
   Orbital update algorithm             .... Taylor
   White noise on init. David. guess    .... on
   Maximum white noise                  ....   0.010
   Quad. conv. algorithm                .... NR
 SOSCF                  CNVSOSCF        .... on
   Start iteration      SOSCFMaxIt      ....   150
   Startup grad/error   SOSCFStart      ....  0.003300
 Level Shifting         CNVShift        .... on
   Level shift para.    LevelShift      ....    0.2500
   Turn off err/grad.   ShiftErr        ....    0.0010
 Zerner damping         CNVZerner       .... off
 Static damping         CNVDamp         .... on
   Fraction old density DampFac         ....    0.7000
   Max. Damping (<1)    DampMax         ....    0.9800
   Min. Damping (>=0)   DampMin         ....    0.0000
   Turn off err/grad.   DampErr         ....    0.1000
 Fernandez-Rico         CNVRico         .... off

SCF Procedure:
 Maximum # iterations   MaxIter         ....   250
 SCF integral mode      SCFMode         .... Direct
   Integral package                     .... SHARK and LIBINT hybrid scheme
 Reset frequency        DirectResetFreq ....    20
 Integral Threshold     Thresh          ....  2.500e-11 Eh
 Primitive CutOff       TCut            ....  2.500e-12 Eh

Convergence Tolerance:
 Convergence Check Mode ConvCheckMode   .... Total+1el-Energy
 Convergence forced     ConvForced      .... 0
 Energy Change          TolE            ....  1.000e-08 Eh
 1-El. energy change                    ....  1.000e-05 Eh
 Orbital Gradient       TolG            ....  1.000e-05
 Orbital Rotation angle TolX            ....  1.000e-05
 DIIS Error             TolErr          ....  5.000e-07


Diagonalization of the overlap matrix:
Smallest eigenvalue                        ... 2.389e-04
Time for diagonalization                   ...    0.003 sec
Threshold for overlap eigenvalues          ... 1.000e-08
Number of eigenvalues below threshold      ... 0
Time for construction of square roots      ...    0.002 sec
Total time needed                          ...    0.006 sec

Time for model grid setup =    0.054 sec

------------------------------
INITIAL GUESS: MODEL POTENTIAL
------------------------------
Loading Hartree-Fock densities                     ... done
Calculating cut-offs                               ... done
Initializing the effective Hamiltonian             ... done
Setting up the integral package (SHARK)            ... done
Starting the Coulomb interaction                   ... done (   0.0 sec)
Reading the grid                                   ... done
Mapping shells                                     ... done
Starting the XC term evaluation                    ... done (   0.0 sec)
  promolecular density results
     # of electrons  =     58.002498790
     EX              =    -50.617400117
     EC              =     -2.140098157
     EX+EC           =    -52.757498274
Transforming the Hamiltonian                       ... done (   0.0 sec)
Diagonalizing the Hamiltonian                      ... done (   0.0 sec)
Back transforming the eigenvectors                 ... done (   0.0 sec)
Now organizing SCF variables                       ... done
                      ------------------
                      INITIAL GUESS DONE (   0.1 sec)
                      ------------------
-------------------
DFT GRID GENERATION
-------------------

General Integration Accuracy     IntAcc      ... 4.388
Radial Grid Type                 RadialGrid  ... OptM3 with GC (2021)
Angular Grid (max. ang.)         AngularGrid ... 4 (Lebedev-302)
Angular grid pruning method      GridPruning ... 4 (adaptive)
Weight generation scheme         WeightScheme... Becke
Basis function cutoff            BFCut       ... 1.0000e-11
Integration weight cutoff        WCut        ... 1.0000e-14
Angular grids for H and He will be reduced by one unit
Partially contracted basis set               ... off
Rotationally invariant grid construction     ... off

Total number of grid points                  ...    64475
Total number of batches                      ...     1013
Average number of points per batch           ...       63
Average number of grid points per atom       ...     4960
Time for grid setup =    0.285 sec

--------------
SCF ITERATIONS
--------------
ITER       Energy         Delta-E        Max-DP      RMS-DP      [F,P]     Damp
               ***  Starting incremental Fock matrix formation  ***
  0   -406.2677203783   0.000000000000 0.06408344  0.00250150  0.2009281 0.7000
  1   -406.3363422786  -0.068621900239 0.03559335  0.00168947  0.0789944 0.7000
                               ***Turning on DIIS***
  2   -406.3615569224  -0.025214643821 0.04692454  0.00270885  0.0201266 0.0000
  3   -406.3994940762  -0.037937153828 0.02429090  0.00117156  0.0440878 0.0000
  4   -406.4097688786  -0.010274802364 0.01043166  0.00037708  0.0084921 0.0000
  5   -406.4102955155  -0.000526636921 0.00435474  0.00014619  0.0052438 0.0000
                      *** Initiating the SOSCF procedure ***
                           *** Shutting down DIIS ***
                      *** Re-Reading the Fockian *** 
                      *** Removing any level shift *** 
ITER      Energy       Delta-E        Grad      Rot      Max-DP    RMS-DP
  6   -406.41034609  -0.0000505714  0.000293  0.000293  0.001818  0.000079
               *** Restarting incremental Fock matrix formation ***
  7   -406.41034584   0.0000002426  0.000444  0.002528  0.003296  0.000078
  8   -406.41033028   0.0000155611  0.001115  0.001892  0.002192  0.000055
  9   -406.41034934  -0.0000190571  0.000117  0.000478  0.000499  0.000019
 10   -406.41034851   0.0000008263  0.000232  0.000297  0.000321  0.000013
 11   -406.41034957  -0.0000010580  0.000010  0.000037  0.000077  0.000003
 12   -406.41034957   0.0000000063  0.000022  0.000027  0.000048  0.000002
 13   -406.41034958  -0.0000000134  0.000003  0.000016  0.000014  0.000001
 14   -406.41034957   0.0000000047  0.000006  0.000013  0.000009  0.000000
                  ***Gradient check signals convergence***
              ***Rediagonalizing the Fockian in SOSCF/NRSCF***

               *****************************************************
               *                     SUCCESS                       *
               *           SCF CONVERGED AFTER  15 CYCLES          *
               *****************************************************


----------------
TOTAL SCF ENERGY
----------------

Total Energy       :         -406.41034958 Eh          -11058.98784 eV

Components:
Nuclear Repulsion  :          344.29741872 Eh            9368.80906 eV
Electronic Energy  :         -750.70776830 Eh          -20427.79690 eV
One Electron Energy:        -1236.70702357 Eh          -33652.50897 eV
Two Electron Energy:          485.99925526 Eh           13224.71207 eV

Virial components:
Potential Energy   :         -809.25774502 Eh          -22021.02277 eV
Kinetic Energy     :          402.84739544 Eh           10962.03493 eV
Virial Ratio       :            2.00884443


DFT components:
N(Alpha)           :       29.000000431102 electrons
N(Beta)            :       29.000000431102 electrons
N(Total)           :       58.000000862204 electrons
E(X)               :      -51.332082889295 Eh       
E(C)               :       -2.148001845162 Eh       
E(XC)              :      -53.480084734457 Eh       
DFET-embed. en.    :        0.000000000000 Eh       

---------------
SCF CONVERGENCE
---------------

  Last Energy change         ...   -4.9794e-09  Tolerance :   1.0000e-08
  Last MAX-Density change    ...    4.9200e-06  Tolerance :   1.0000e-07
  Last RMS-Density change    ...    2.2006e-07  Tolerance :   5.0000e-09
  Last Orbital Gradient      ...    8.5281e-07  Tolerance :   1.0000e-05
  Last Orbital Rotation      ...    3.2811e-06  Tolerance :   1.0000e-05

             **** THE GBW FILE WAS UPDATED (p-fluorophenol_opt_orca.gbw) ****
             **** DENSITY p-fluorophenol_opt_orca.scfp WAS UPDATED ****
             **** ENERGY FILE WAS UPDATED (p-fluorophenol_opt_orca.en.tmp) ****
             **** THE GBW FILE WAS UPDATED (p-fluorophenol_opt_orca.gbw) ****
             **** DENSITY p-fluorophenol_opt_orca.scfp WAS UPDATED ****
----------------
ORBITAL ENERGIES
----------------

  NO   OCC          E(Eh)            E(eV) 
   0   2.0000     -24.288400      -660.9210 
   1   2.0000     -18.812697      -511.9195 
   2   2.0000      -9.984561      -271.6937 
   3   2.0000      -9.974712      -271.4257 
   4   2.0000      -9.922653      -270.0091 
   5   2.0000      -9.921635      -269.9814 
   6   2.0000      -9.920306      -269.9452 
   7   2.0000      -9.917406      -269.8663 
   8   2.0000      -1.096311       -29.8321 
   9   2.0000      -0.971330       -26.4312 
  10   2.0000      -0.784862       -21.3572 
  11   2.0000      -0.689620       -18.7655 
  12   2.0000      -0.668480       -18.1903 
  13   2.0000      -0.579789       -15.7769 
  14   2.0000      -0.554545       -15.0899 
  15   2.0000      -0.507212       -13.8019 
  16   2.0000      -0.484853       -13.1935 
  17   2.0000      -0.448989       -12.2176 
  18   2.0000      -0.406509       -11.0617 
  19   2.0000      -0.403678       -10.9846 
  20   2.0000      -0.393238       -10.7005 
  21   2.0000      -0.380733       -10.3603 
  22   2.0000      -0.367600       -10.0029 
  23   2.0000      -0.357774        -9.7355 
  24   2.0000      -0.321046        -8.7361 
  25   2.0000      -0.301227        -8.1968 
  26   2.0000      -0.292529        -7.9601 
  27   2.0000      -0.243558        -6.6275 
  28   2.0000      -0.196238        -5.3399 
  29   0.0000      -0.048567        -1.3216 
  30   0.0000      -0.020430        -0.5559 
  31   0.0000       0.023254         0.6328 
  32   0.0000       0.044202         1.2028 
  33   0.0000       0.082267         2.2386 
  34   0.0000       0.110683         3.0118 
  35   0.0000       0.113617         3.0917 
  36   0.0000       0.127179         3.4607 
  37   0.0000       0.132882         3.6159 
  38   0.0000       0.187455         5.1009 
  39   0.0000       0.228413         6.2154 
  40   0.0000       0.268119         7.2959 
  41   0.0000       0.274038         7.4570 
  42   0.0000       0.294188         8.0053 
  43   0.0000       0.309115         8.4115 
  44   0.0000       0.345845         9.4109 
  45   0.0000       0.366869         9.9830 
  46   0.0000       0.415310        11.3011 
  47   0.0000       0.422268        11.4905 
  48   0.0000       0.432123        11.7587 
  49   0.0000       0.445956        12.1351 
  50   0.0000       0.475323        12.9342 
  51   0.0000       0.479559        13.0495 
  52   0.0000       0.485581        13.2133 
  53   0.0000       0.495427        13.4813 
  54   0.0000       0.517246        14.0750 
  55   0.0000       0.548489        14.9252 
  56   0.0000       0.560457        15.2508 
  57   0.0000       0.564146        15.3512 
  58   0.0000       0.591965        16.1082 
  59   0.0000       0.626812        17.0564 
  60   0.0000       0.646250        17.5854 
  61   0.0000       0.648612        17.6496 
  62   0.0000       0.659923        17.9574 
  63   0.0000       0.676747        18.4152 
  64   0.0000       0.713767        19.4226 
  65   0.0000       0.722023        19.6472 
  66   0.0000       0.732059        19.9203 
  67   0.0000       0.763245        20.7689 
  68   0.0000       0.834973        22.7208 
  69   0.0000       0.885924        24.1072 
  70   0.0000       0.909158        24.7394 
  71   0.0000       0.911503        24.8033 
  72   0.0000       1.006151        27.3788 
  73   0.0000       1.032318        28.0908 
  74   0.0000       1.091408        29.6987 
  75   0.0000       1.160758        31.5858 
  76   0.0000       1.163841        31.6697 
  77   0.0000       1.171025        31.8652 
  78   0.0000       1.182064        32.1656 
  79   0.0000       1.205281        32.7974 
  80   0.0000       1.218623        33.1604 
  81   0.0000       1.221178        33.2299 
  82   0.0000       1.290304        35.1109 
  83   0.0000       1.396948        38.0129 
  84   0.0000       1.404006        38.2049 
  85   0.0000       1.441503        39.2253 
  86   0.0000       1.473254        40.0893 
  87   0.0000       1.492806        40.6213 
  88   0.0000       1.593640        43.3651 
  89   0.0000       1.605102        43.6771 
  90   0.0000       1.650006        44.8989 
  91   0.0000       1.667835        45.3841 
  92   0.0000       1.669801        45.4376 
  93   0.0000       1.680183        45.7201 
  94   0.0000       1.682229        45.7758 
  95   0.0000       1.724128        46.9159 
  96   0.0000       1.747207        47.5439 
  97   0.0000       1.752366        47.6843 
  98   0.0000       1.795748        48.8648 
  99   0.0000       1.808764        49.2190 
 100   0.0000       1.839099        50.0444 
 101   0.0000       1.894236        51.5448 
 102   0.0000       1.904581        51.8263 
 103   0.0000       1.999218        54.4015 
 104   0.0000       2.009866        54.6912 
 105   0.0000       2.042124        55.5690 
 106   0.0000       2.070096        56.3302 
 107   0.0000       2.082293        56.6621 
 108   0.0000       2.116440        57.5913 
 109   0.0000       2.175551        59.1998 
 110   0.0000       2.189058        59.5673 
 111   0.0000       2.203008        59.9469 
 112   0.0000       2.221156        60.4407 
 113   0.0000       2.277489        61.9736 
 114   0.0000       2.287670        62.2507 
 115   0.0000       2.359796        64.2133 
 116   0.0000       2.483013        67.5662 
 117   0.0000       2.530781        68.8661 
 118   0.0000       2.542718        69.1909 
 119   0.0000       2.546798        69.3019 
 120   0.0000       2.658425        72.3394 
 121   0.0000       2.758985        75.0758 
 122   0.0000       2.778075        75.5953 
 123   0.0000       2.802910        76.2711 
 124   0.0000       2.813811        76.5677 
 125   0.0000       2.836202        77.1770 
 126   0.0000       2.892759        78.7160 
 127   0.0000       2.988665        81.3257 
 128   0.0000       3.010271        81.9136 
 129   0.0000       3.079162        83.7883 
 130   0.0000       3.151761        85.7638 
 131   0.0000       3.216163        87.5163 
 132   0.0000       3.283608        89.3515 
 133   0.0000       3.440213        93.6130 
 134   0.0000       3.492802        95.0440 
 135   0.0000       3.684750       100.2672 
 136   0.0000       3.811639       103.7200 

                    ********************************
                    * MULLIKEN POPULATION ANALYSIS *
                    ********************************

-----------------------
MULLIKEN ATOMIC CHARGES
-----------------------
   0 C :   -0.058453
   1 C :   -0.066786
   2 C :    0.271491
   3 C :   -0.060401
   4 C :   -0.032251
   5 C :    0.150923
   6 O :   -0.163696
   7 F :   -0.178727
   8 H :   -0.026679
   9 H :   -0.002834
  10 H :   -0.000782
  11 H :   -0.007223
  12 H :    0.175419
Sum of atomic charges:    0.0000000

--------------------------------
MULLIKEN REDUCED ORBITAL CHARGES
--------------------------------
  0 C s       :     3.214958  s :     3.214958
      pz      :     1.049638  p :     2.811481
      px      :     0.902246
      py      :     0.859597
      dz2     :     0.004096  d :     0.032014
      dxz     :     0.005046
      dyz     :     0.004123
      dx2y2   :     0.007723
      dxy     :     0.011026
  1 C s       :     3.246365  s :     3.246365
      pz      :     0.996120  p :     2.787920
      px      :     0.914420
      py      :     0.877380
      dz2     :     0.003146  d :     0.032501
      dxz     :     0.006025
      dyz     :     0.004534
      dx2y2   :     0.008196
      dxy     :     0.010600
  2 C s       :     2.949880  s :     2.949880
      pz      :     0.994930  p :     2.699683
      px      :     0.713465
      py      :     0.991288
      dz2     :     0.008007  d :     0.078946
      dxz     :     0.016215
      dyz     :     0.008611
      dx2y2   :     0.024806
      dxy     :     0.021306
  3 C s       :     3.246899  s :     3.246899
      pz      :     1.010575  p :     2.780922
      px      :     0.886573
      py      :     0.883774
      dz2     :     0.004203  d :     0.032579
      dxz     :     0.005144
      dyz     :     0.004544
      dx2y2   :     0.007715
      dxy     :     0.010974
  4 C s       :     3.247015  s :     3.247015
      pz      :     0.997009  p :     2.753705
      px      :     0.881675
      py      :     0.875021
      dz2     :     0.003057  d :     0.031531
      dxz     :     0.005584
      dyz     :     0.004184
      dx2y2   :     0.008059
      dxy     :     0.010647
  5 C s       :     2.941560  s :     2.941560
      pz      :     0.974093  p :     2.833702
      px      :     0.832649
      py      :     1.026960
      dz2     :     0.008442  d :     0.073815
      dxz     :     0.016365
      dyz     :     0.008018
      dx2y2   :     0.021829
      dxy     :     0.019162
  6 O s       :     3.668486  s :     3.668486
      pz      :     1.760567  p :     4.481521
      px      :     1.308662
      py      :     1.412292
      dz2     :     0.002189  d :     0.013690
      dxz     :     0.002745
      dyz     :     0.001099
      dx2y2   :     0.004525
      dxy     :     0.003133
  7 F s       :     3.890529  s :     3.890529
      pz      :     1.844257  p :     5.280486
      px      :     1.520854
      py      :     1.915374
      dz2     :     0.001037  d :     0.007713
      dxz     :     0.002370
      dyz     :     0.000197
      dx2y2   :     0.002565
      dxy     :     0.001543
  8 H s       :     1.003615  s :     1.003615
      pz      :     0.005507  p :     0.023064
      px      :     0.006705
      py      :     0.010851
  9 H s       :     0.979828  s :     0.979828
      pz      :     0.006152  p :     0.023006
      px      :     0.005658
      py      :     0.011195
 10 H s       :     0.977851  s :     0.977851
      pz      :     0.005022  p :     0.022931
      px      :     0.007181
      py      :     0.010729
 11 H s       :     0.984244  s :     0.984244
      pz      :     0.006161  p :     0.022980
      px      :     0.005694
      py      :     0.011124
 12 H s       :     0.755937  s :     0.755937
      pz      :     0.018287  p :     0.068644
      px      :     0.019295
      py      :     0.031062


                     *******************************
                     * LOEWDIN POPULATION ANALYSIS *
                     *******************************

----------------------
LOEWDIN ATOMIC CHARGES
----------------------
   0 C :   -0.072259
   1 C :   -0.049006
   2 C :    0.052134
   3 C :   -0.046243
   4 C :   -0.043547
   5 C :    0.026425
   6 O :   -0.035946
   7 F :   -0.060470
   8 H :    0.026592
   9 H :    0.037680
  10 H :    0.038555
  11 H :    0.035492
  12 H :    0.090594

-------------------------------
LOEWDIN REDUCED ORBITAL CHARGES
-------------------------------
  0 C s       :     2.855902  s :     2.855902
      pz      :     1.040472  p :     3.126527
      px      :     1.054350
      py      :     1.031705
      dz2     :     0.009510  d :     0.089831
      dxz     :     0.012938
      dyz     :     0.010009
      dx2y2   :     0.024937
      dxy     :     0.032438
  1 C s       :     2.857956  s :     2.857956
      pz      :     1.007262  p :     3.101095
      px      :     1.052382
      py      :     1.041450
      dz2     :     0.007788  d :     0.089955
      dxz     :     0.014926
      dyz     :     0.010141
      dx2y2   :     0.025709
      dxy     :     0.031391
  2 C s       :     2.848048  s :     2.848048
      pz      :     0.998283  p :     2.913697
      px      :     0.813580
      py      :     1.101834
      dz2     :     0.016968  d :     0.186122
      dxz     :     0.033752
      dyz     :     0.019904
      dx2y2   :     0.059253
      dxy     :     0.056245
  3 C s       :     2.858124  s :     2.858124
      pz      :     1.005023  p :     3.098151
      px      :     1.052616
      py      :     1.040512
      dz2     :     0.009883  d :     0.089967
      dxz     :     0.012958
      dyz     :     0.010853
      dx2y2   :     0.024569
      dxy     :     0.031703
  4 C s       :     2.855706  s :     2.855706
      pz      :     1.014329  p :     3.099824
      px      :     1.048284
      py      :     1.037211
      dz2     :     0.007386  d :     0.088017
      dxz     :     0.013756
      dyz     :     0.009531
      dx2y2   :     0.025571
      dxy     :     0.031773
  5 C s       :     2.836031  s :     2.836031
      pz      :     0.974456  p :     2.965117
      px      :     0.892073
      py      :     1.098589
      dz2     :     0.017653  d :     0.172427
      dxz     :     0.034457
      dyz     :     0.018277
      dx2y2   :     0.053532
      dxy     :     0.048508
  6 O s       :     3.415218  s :     3.415218
      pz      :     1.737982  p :     4.593867
      px      :     1.359259
      py      :     1.496626
      dz2     :     0.004082  d :     0.026861
      dxz     :     0.005139
      dyz     :     0.000878
      dx2y2   :     0.009769
      dxy     :     0.006992
  7 F s       :     3.728078  s :     3.728078
      pz      :     1.847577  p :     5.320114
      px      :     1.558381
      py      :     1.914156
      dz2     :     0.001628  d :     0.012278
      dxz     :     0.003753
      dyz     :     0.000280
      dx2y2   :     0.004385
      dxy     :     0.002233
  8 H s       :     0.902764  s :     0.902764
      pz      :     0.016543  p :     0.070644
      px      :     0.020484
      py      :     0.033617
  9 H s       :     0.891311  s :     0.891311
      pz      :     0.018689  p :     0.071009
      px      :     0.017260
      py      :     0.035060
 10 H s       :     0.890611  s :     0.890611
      pz      :     0.015342  p :     0.070835
      px      :     0.021842
      py      :     0.033651
 11 H s       :     0.893064  s :     0.893064
      pz      :     0.018937  p :     0.071444
      px      :     0.017322
      py      :     0.035185
 12 H s       :     0.732973  s :     0.732973
      pz      :     0.047277  p :     0.176433
      px      :     0.042975
      py      :     0.086181


                      *****************************
                      * MAYER POPULATION ANALYSIS *
                      *****************************

  NA   - Mulliken gross atomic population
  ZA   - Total nuclear charge
  QA   - Mulliken gross atomic charge
  VA   - Mayer's total valence
  BVA  - Mayer's bonded valence
  FA   - Mayer's free valence

  ATOM       NA         ZA         QA         VA         BVA        FA
  0 C      6.0585     6.0000    -0.0585     3.7627     3.7627    -0.0000
  1 C      6.0668     6.0000    -0.0668     3.8230     3.8230     0.0000
  2 C      5.7285     6.0000     0.2715     3.8943     3.8943     0.0000
  3 C      6.0604     6.0000    -0.0604     3.7951     3.7951     0.0000
  4 C      6.0323     6.0000    -0.0323     3.8117     3.8117    -0.0000
  5 C      5.8491     6.0000     0.1509     4.0013     4.0013     0.0000
  6 O      8.1637     8.0000    -0.1637     2.2787     2.2787     0.0000
  7 F      9.1787     9.0000    -0.1787     1.1999     1.1999     0.0000
  8 H      1.0267     1.0000    -0.0267     0.9911     0.9911    -0.0000
  9 H      1.0028     1.0000    -0.0028     0.9933     0.9933     0.0000
 10 H      1.0008     1.0000    -0.0008     0.9935     0.9935    -0.0000
 11 H      1.0072     1.0000    -0.0072     0.9962     0.9962    -0.0000
 12 H      0.8246     1.0000     0.1754     1.0136     1.0136     0.0000

  Mayer bond orders larger than 0.100000
B(  0-C ,  1-C ) :   1.3393 B(  0-C ,  5-C ) :   1.3191 B(  0-C ,  8-H ) :   0.9787 
B(  1-C ,  2-C ) :   1.3604 B(  1-C ,  9-H ) :   0.9856 B(  2-C ,  3-C ) :   1.3429 
B(  2-C ,  7-F ) :   1.0917 B(  3-C ,  4-C ) :   1.3510 B(  3-C , 10-H ) :   0.9900 
B(  4-C ,  5-C ) :   1.3471 B(  4-C , 11-H ) :   0.9894 B(  5-C ,  6-O ) :   1.2106 
B(  6-O , 12-H ) :   0.9617 


------------------
HIRSHFELD ANALYSIS
------------------

Total integrated alpha density =     29.000000431
Total integrated beta density  =     29.000000431

  ATOM     CHARGE      SPIN    
   0 C   -0.062260    0.000000
   1 C   -0.051741    0.000000
   2 C    0.080800    0.000000
   3 C   -0.048568    0.000000
   4 C   -0.048338    0.000000
   5 C    0.073124    0.000000
   6 O   -0.184252    0.000000
   7 F   -0.103043    0.000000
   8 H    0.034193    0.000000
   9 H    0.044856    0.000000
  10 H    0.045719    0.000000
  11 H    0.042795    0.000000
  12 H    0.176715    0.000000

  TOTAL  -0.000001    0.000000

-------
TIMINGS
-------

Total SCF time: 0 days 0 hours 0 min 2 sec 

Total time                  ....       2.077 sec
Sum of individual times     ....       1.985 sec  ( 95.6%)

Fock matrix formation       ....       1.449 sec  ( 69.8%)
  Split-RI-J                ....       0.494 sec  ( 34.1% of F)
  XC integration            ....       0.933 sec  ( 64.4% of F)
    Basis function eval.    ....       0.325 sec  ( 34.9% of XC)
    Density eval.           ....       0.204 sec  ( 21.9% of XC)
    XC-Functional eval.     ....       0.097 sec  ( 10.4% of XC)
    XC-Potential eval.      ....       0.174 sec  ( 18.7% of XC)
Diagonalization             ....       0.025 sec  (  1.2%)
Density matrix formation    ....       0.003 sec  (  0.2%)
Population analysis         ....       0.080 sec  (  3.9%)
Initial guess               ....       0.044 sec  (  2.1%)
Orbital Transformation      ....       0.000 sec  (  0.0%)
Orbital Orthonormalization  ....       0.000 sec  (  0.0%)
DIIS solution               ....       0.020 sec  (  1.0%)
SOSCF solution              ....       0.025 sec  (  1.2%)
Grid generation             ....       0.339 sec  ( 16.3%)

Maximum memory used throughout the entire SCF-calculation: 17.7 MB


-------------------------------------------------------------------------------
                          DFT DISPERSION CORRECTION                            
                                                                               
                                 DFTD4 V2.5                                    
-------------------------------------------------------------------------------
The BP86 functional is recognized
Active option DFTDOPT                   ...         5   

Starting D4
-------------------------   ----------------
Dispersion correction           -0.016423629
-------------------------   ----------------


-------------------------   --------------------
FINAL SINGLE POINT ENERGY      -406.426773208007
-------------------------   --------------------



           ************************************************************
           *        Program running with 8 parallel MPI-processes     *
           *              working on a common directory               *
           ************************************************************
------------------------------------------------------------------------------
                         ORCA SCF GRADIENT CALCULATION
------------------------------------------------------------------------------

Gradient of the Kohn-Sham DFT energy:
Kohn-Sham wavefunction type      ... RKS
Hartree-Fock exchange scaling    ...    0.000
Number of operators              ...    1
Number of atoms                  ...   13
Basis set dimensions             ...  137
Integral neglect threshold       ... 2.5e-11
Integral primitive cutoff        ... 2.5e-12
SHARK Integral package           ... ON

Nuc. rep. gradient       (SHARK) ... done (  0.0 sec)
HCore & Overlap gradient (SHARK) ... done (  0.0 sec)
RI-J gradient            (SHARK) ... done (  0.1 sec)
Exchange-correlation gradient    ... done
Dispersion correction            ... Starting D4
Starting D4
Starting D4
Starting D4
Starting D4
Starting D4


------------------- 
Dispersion Gradient 
------------------- 
   1  :    0.000147513   -0.000230509   -0.000001587
   2  :   -0.000177001   -0.000248570    0.000112968
   3  :   -0.000277984   -0.000005515    0.000096073
Starting D4
Starting D4
   4  :   -0.000211331    0.000241027    0.000021553
   5  :    0.000091932    0.000248763   -0.000083657
   6  :    0.000233160    0.000008784   -0.000081423
   7  :    0.000445650    0.000015642   -0.000155994
   8  :   -0.000333212   -0.000009368    0.000115489
   9  :    0.000071434   -0.000125782    0.000002179
  10  :   -0.000067173   -0.000119708    0.000048130
  11  :   -0.000087093    0.000116020    0.000005298
  12  :    0.000053602    0.000126582   -0.000044948
  13  :    0.000100194   -0.000012748   -0.000031569

  |G| =    0.004607163

done

------------------
CARTESIAN GRADIENT
------------------

   1   C   :   -0.002736277    0.002706604    0.000341787
   2   C   :    0.002277606    0.001913657   -0.001222938
   3   C   :    0.017247728    0.000623621   -0.005991068
   4   C   :    0.002467982   -0.001061667   -0.000606322
   5   C   :   -0.004443869   -0.001913232    0.001891616
   6   C   :   -0.012537748    0.002195363    0.004020592
   7   O   :   -0.003902121   -0.012399437    0.003810142
   8   F   :    0.002968169   -0.000014141   -0.001055140
   9   H   :   -0.007919954    0.012011524    0.000187536
  10   H   :    0.006719826    0.012258889   -0.004890682
  11   H   :    0.008876024   -0.011973296   -0.000502503
  12   H   :   -0.006382965   -0.013107033    0.004960795
  13   H   :   -0.002644713    0.008763768   -0.000941305

Difference to translation invariance:
           :   -0.0000103101    0.0000046182    0.0000025105

Difference to rotation invariance:
           :    0.0000306579   -0.0001224989   -0.0001700520

Norm of the cartesian gradient     ...    0.0416632384
RMS gradient                       ...    0.0066714574
MAX gradient                       ...    0.0172477283

-------
TIMINGS
-------

Total SCF gradient time            ...        0.581 sec

One electron gradient       ....       0.020 sec  (  3.4%)
RI-J Coulomb gradient       ....       0.150 sec  ( 25.7%)
XC gradient                 ....       0.329 sec  ( 56.6%)

Maximum memory used throughout the entire SCFGRAD-calculation: 28.7 MB
------------------------------------------------------------------------------
                         ORCA GEOMETRY RELAXATION STEP
------------------------------------------------------------------------------

Reading the OPT-File                    .... done
Getting information on internals        .... done
Copying old internal coords+grads       .... done
Making the new internal coordinates     .... (new redundants).... done
Validating the new internal coordinates .... (new redundants).... done
Calculating the B-matrix                .... done
Calculating the G,G- and P matrices     .... done
Transforming gradient to internals      .... done
Projecting the internal gradient        .... done
Number of atoms                         ....  13
Number of internal coordinates          ....  58
Current Energy                          ....  -406.426773208 Eh
Current gradient norm                   ....     0.041663238 Eh/bohr
Maximum allowed component of the step   ....  0.300
Current trust radius                    ....  0.300
Evaluating the initial hessian          ....  (Almloef) done
Projecting the Hessian                  .... done
Forming the augmented Hessian           .... done
Diagonalizing the augmented Hessian     .... done
Last element of RFO vector              ....  0.993976710
Lowest eigenvalues of augmented Hessian:
 -0.006101019  0.026813910  0.027320970  0.027653633  0.027879802
Length of the computed step             ....  0.110255618
The final length of the internal step   ....  0.110255618
Converting the step to cartesian space:
 Initial RMS(Int)=    0.0144772719
Transforming coordinates:
 Iter   0:  RMS(Cart)=    0.0274184568 RMS(Int)=    1.6499089326
 Iter   1:  RMS(Cart)=    0.0000303672 RMS(Int)=    0.0000203336
 Iter   2:  RMS(Cart)=    0.0000003470 RMS(Int)=    0.0000002333
 Iter   3:  RMS(Cart)=    0.0000000050 RMS(Int)=    0.0000000032
done
Storing new coordinates                 .... done

                                .--------------------.
          ----------------------|Geometry convergence|-------------------------
          Item                value                   Tolerance       Converged
          ---------------------------------------------------------------------
          RMS gradient        0.0075053487            0.0001000000      NO
          MAX gradient        0.0215345967            0.0003000000      NO
          RMS step            0.0144772719            0.0020000000      NO
          MAX step            0.0402264774            0.0040000000      NO
          ........................................................
          Max(Bonds)      0.0213      Max(Angles)    0.47
          Max(Dihed)        0.16      Max(Improp)    0.00
          ---------------------------------------------------------------------

The optimization has not yet converged - more geometry cycles are needed


    ---------------------------------------------------------------------------
                         Redundant Internal Coordinates
                            (Angstroem and degrees)

        Definition                    Value    dE/dq     Step     New-Value
    ----------------------------------------------------------------------------
     1. B(C   1,C   0)                1.3831 -0.021495  0.0176    1.4007   
     2. B(C   2,C   1)                1.3816 -0.017451  0.0142    1.3958   
     3. B(C   3,C   2)                1.3838 -0.017578  0.0144    1.3982   
     4. B(C   4,C   3)                1.3804 -0.021535  0.0174    1.3978   
     5. B(C   5,C   4)                1.3928 -0.016857  0.0143    1.4071   
     6. B(C   5,C   0)                1.3908 -0.019156  0.0161    1.4069   
     7. B(O   6,C   5)                1.3587 -0.007333  0.0061    1.3648   
     8. B(F   7,C   2)                1.3519 -0.003149  0.0028    1.3547   
     9. B(H   8,C   0)                1.0817 -0.014388  0.0202    1.1019   
    10. B(H   9,C   1)                1.0782 -0.014788  0.0205    1.0987   
    11. B(H  10,C   3)                1.0782 -0.014901  0.0206    1.0988   
    12. B(H  11,C   4)                1.0777 -0.015400  0.0213    1.0990   
    13. B(H  12,O   6)                0.9651 -0.009076  0.0093    0.9744   
    14. A(C   1,C   0,H   8)          119.78  0.000304   -0.04    119.74   
    15. A(C   1,C   0,C   5)          120.35 -0.000635    0.08    120.43   
    16. A(C   5,C   0,H   8)          119.87  0.000331   -0.04    119.83   
    17. A(C   0,C   1,C   2)          118.87 -0.001179    0.16    119.03   
    18. A(C   0,C   1,H   9)          121.10 -0.000243    0.05    121.15   
    19. A(C   2,C   1,H   9)          120.03  0.001422   -0.21    119.82   
    20. A(C   1,C   2,C   3)          121.75  0.002390   -0.31    121.44   
    21. A(C   3,C   2,F   7)          119.16 -0.001068    0.14    119.30   
    22. A(C   1,C   2,F   7)          119.09 -0.001321    0.17    119.26   
    23. A(C   2,C   3,H  10)          119.81  0.001523   -0.22    119.59   
    24. A(C   2,C   3,C   4)          119.07 -0.001777    0.24    119.31   
    25. A(C   4,C   3,H  10)          121.12  0.000253   -0.02    121.10   
    26. A(C   3,C   4,C   5)          120.17 -0.000492    0.06    120.23   
    27. A(C   5,C   4,H  11)          118.78  0.000311   -0.04    118.74   
    28. A(C   3,C   4,H  11)          121.05  0.000182   -0.02    121.03   
    29. A(C   0,C   5,O   6)          122.06 -0.003587    0.47    122.54   
    30. A(C   0,C   5,C   4)          119.79  0.001693   -0.23    119.56   
    31. A(C   4,C   5,O   6)          118.14  0.001893   -0.24    117.90   
    32. A(C   5,O   6,H  12)          109.89  0.002808   -0.43    109.46   
    33. D(H   9,C   1,C   0,C   5)    179.93 -0.000030    0.05    179.99   
    34. D(H   9,C   1,C   0,H   8)     -0.02  0.000002   -0.00     -0.02   
    35. D(C   2,C   1,C   0,H   8)   -179.99  0.000013   -0.02   -180.02   
    36. D(C   2,C   1,C   0,C   5)     -0.04 -0.000019    0.03     -0.01   
    37. D(F   7,C   2,C   1,C   0)    179.96 -0.000023    0.04    180.00   
    38. D(C   3,C   2,C   1,C   0)     -0.03 -0.000005    0.01     -0.02   
    39. D(C   3,C   2,C   1,H   9)    180.00  0.000007   -0.01    179.99   
    40. D(F   7,C   2,C   1,H   9)     -0.01 -0.000011    0.02      0.01   
    41. D(H  10,C   3,C   2,F   7)      0.03  0.000015   -0.03      0.01   
    42. D(H  10,C   3,C   2,C   1)   -179.97 -0.000004    0.00   -179.97   
    43. D(C   4,C   3,C   2,F   7)   -179.94  0.000041   -0.07   -180.00   
    44. D(C   4,C   3,C   2,C   1)      0.05  0.000023   -0.04      0.01   
    45. D(H  11,C   4,C   3,C   2)    179.98 -0.000029    0.05    180.02   
    46. D(C   5,C   4,C   3,H  10)   -179.98  0.000010   -0.02   -180.00   
    47. D(C   5,C   4,C   3,C   2)     -0.01 -0.000017    0.03      0.02   
    48. D(H  11,C   4,C   3,H  10)      0.01 -0.000002    0.00      0.01   
    49. D(O   6,C   5,C   4,H  11)     -0.17 -0.000064    0.11     -0.07   
    50. D(C   0,C   5,C   4,H  11)    179.96  0.000005   -0.01    179.95   
    51. D(C   0,C   5,C   4,C   3)     -0.05 -0.000006    0.01     -0.04   
    52. D(O   6,C   5,C   0,H   8)      0.17  0.000057   -0.10      0.07   
    53. D(O   6,C   5,C   0,C   1)   -179.78  0.000089   -0.16   -179.94   
    54. D(O   6,C   5,C   4,C   3)    179.81 -0.000075    0.13    179.94   
    55. D(C   4,C   5,C   0,H   8)   -179.97 -0.000007    0.01   -179.95   
    56. D(C   4,C   5,C   0,C   1)      0.08  0.000025   -0.04      0.04   
    57. D(H  12,O   6,C   5,C   4)    179.74 -0.000008    0.01    179.75   
    58. D(H  12,O   6,C   5,C   0)     -0.39 -0.000072    0.12     -0.27   
    ----------------------------------------------------------------------------

         *************************************************************
         *                GEOMETRY OPTIMIZATION CYCLE   2            *
         *************************************************************
---------------------------------
CARTESIAN COORDINATES (ANGSTROEM)
---------------------------------
  C      0.532169   -1.117653    0.053645
  C     -0.789990   -1.159823    0.514060
  C     -1.541981    0.016019    0.522873
  C     -1.003645    1.229317    0.083576
  C      0.316309    1.266128   -0.374851
  C      1.092793    0.092845   -0.393267
  O      2.375254    0.182889   -0.851475
  F     -2.821227   -0.019399    0.967215
  H      1.136497   -2.038925    0.041845
  H     -1.239696   -2.098661    0.865519
  H     -1.622804    2.136815    0.104143
  H      0.768024    2.204365   -0.726231
  H      2.798196   -0.693819   -0.807053

----------------------------
CARTESIAN COORDINATES (A.U.)
----------------------------
  NO LB      ZA    FRAG     MASS         X           Y           Z
   0 C     6.0000    0    12.011    1.005654   -2.112057    0.101375
   1 C     6.0000    0    12.011   -1.492864   -2.191747    0.971433
   2 C     6.0000    0    12.011   -2.913923    0.030272    0.988087
   3 C     6.0000    0    12.011   -1.896614    2.323072    0.157935
   4 C     6.0000    0    12.011    0.597738    2.392636   -0.708365
   5 C     6.0000    0    12.011    2.065079    0.175452   -0.743166
   6 O     8.0000    0    15.999    4.488580    0.345610   -1.609054
   7 F     9.0000    0    18.998   -5.331346   -0.036659    1.827772
   8 H     1.0000    0     1.008    2.147668   -3.853009    0.079075
   9 H     1.0000    0     1.008   -2.342685   -3.965894    1.635594
  10 H     1.0000    0     1.008   -3.066654    4.037995    0.196803
  11 H     1.0000    0     1.008    1.451355    4.165647   -1.372378
  12 H     1.0000    0     1.008    5.287823   -1.311128   -1.525109

--------------------------------
INTERNAL COORDINATES (ANGSTROEM)
--------------------------------
 C      0   0   0     0.000000000000     0.00000000     0.00000000
 C      1   0   0     1.400665498788     0.00000000     0.00000000
 C      2   1   0     1.395770139002   119.03077681     0.00000000
 C      3   2   1     1.398169779731   121.44085609     0.00000000
 C      4   3   2     1.397780161819   119.30711266     0.00000000
 C      1   2   3     1.406888267291   120.42917668     0.00000000
 O      6   1   2     1.364833336690   122.53712679   180.05759455
 F      3   2   1     1.354682046320   119.26230088   180.00027919
 H      1   2   3     1.101859102757   119.74021410   179.98469584
 H      2   1   3     1.098715274392   121.14700217   179.99287567
 H      4   3   2     1.098787384293   119.59466543   180.02977497
 H      5   4   3     1.099001154187   121.02963518   180.02370043
 H      7   6   1     0.974407588899   109.46245404   359.72973426

---------------------------
INTERNAL COORDINATES (A.U.)
---------------------------
 C      0   0   0     0.000000000000     0.00000000     0.00000000
 C      1   0   0     2.646874197942     0.00000000     0.00000000
 C      2   1   0     2.637623308619   119.03077681     0.00000000
 C      3   2   1     2.642157972417   121.44085609     0.00000000
 C      4   3   2     2.641421701266   119.30711266     0.00000000
 C      1   2   3     2.658633526207   120.42917668     0.00000000
 O      6   1   2     2.579161224791   122.53712679   180.05759455
 F      3   2   1     2.559978066086   119.26230088   180.00027919
 H      1   2   3     2.082211942378   119.74021410   179.98469584
 H      2   1   3     2.076270967756   121.14700217   179.99287567
 H      4   3   2     2.076407235721   119.59466543   180.02977497
 H      5   4   3     2.076811202276   121.02963518   180.02370043
 H      7   6   1     1.841363485834   109.46245404   359.72973426



           ************************************************************
           *        Program running with 8 parallel MPI-processes     *
           *              working on a common directory               *
           ************************************************************
------------------------------------------------------------------------------
                   ___                                                        
                  /   \      - P O W E R E D   B Y -                         
                 /     \                                                     
                 |  |  |   _    _      __       _____    __    __             
                 |  |  |  | |  | |    /  \     |  _  \  |  |  /  |          
                  \  \/   | |  | |   /    \    | | | |  |  | /  /          
                 / \  \   | |__| |  /  /\  \   | |_| |  |  |/  /          
                |  |  |   |  __  | /  /__\  \  |    /   |      \           
                |  |  |   | |  | | |   __   |  |    \   |  |\   \          
                \     /   | |  | | |  |  |  |  | |\  \  |  | \   \       
                 \___/    |_|  |_| |__|  |__|  |_| \__\ |__|  \__/        
                                                                              
                      - O R C A' S   B I G   F R I E N D -                    
                                      &                                       
                       - I N T E G R A L  F E E D E R -                       
                                                                              
 v1 FN, 2020, v2 2021                                                         
------------------------------------------------------------------------------


Reading SHARK input file p-fluorophenol_opt_orca.SHARKINP.tmp ... ok
----------------------
SHARK INTEGRAL PACKAGE
----------------------

Number of atoms                             ...     13
Number of basis functions                   ...    137
Number of shells                            ...     63
Maximum angular momentum                    ...      2
Integral batch strategy                     ... SHARK/LIBINT Hybrid
RI-J (if used) integral strategy            ... SPLIT-RIJ (Revised 2003 algorithm where possible)
Printlevel                                  ...      1
Contraction scheme used                     ... SEGMENTED contraction
Coulomb Range Separation                    ... NOT USED
Exchange Range Separation                   ... NOT USED
Finite Nucleus Model                        ... NOT USED
Auxiliary Coulomb fitting basis             ... AVAILABLE
   # of basis functions in Aux-J            ...    447
   # of shells in Aux-J                     ...    145
   Maximum angular momentum in Aux-J        ...      4
Auxiliary J/K fitting basis                 ... NOT available
Auxiliary Correlation fitting basis         ... NOT available
Auxiliary 'external' fitting basis          ... NOT available
Integral threshold                          ...     2.500000e-11
Primitive cut-off                           ...     2.500000e-12
Primitive pair pre-selection threshold      ...     2.500000e-12

Calculating pre-screening integrals         ... done (  0.0 sec) Dimension = 63
Organizing shell pair data                  ... done (  0.0 sec)
Shell pair information
Total number of shell pairs                 ...      2016
Shell pairs after pre-screening             ...      1907
Total number of primitive shell pairs       ...      7500
Primitive shell pairs kept                  ...      5263
          la=0 lb=0:    556 shell pairs
          la=1 lb=0:    679 shell pairs
          la=1 lb=1:    221 shell pairs
          la=2 lb=0:    255 shell pairs
          la=2 lb=1:    161 shell pairs
          la=2 lb=2:     35 shell pairs

Calculating one electron integrals          ... done (  0.0 sec)
Calculating RI/J V-Matrix + Cholesky decomp.... done (  0.0 sec)
Calculating Nuclear repulsion               ... done (  0.0 sec) ENN=    340.918141697219 Eh

SHARK setup successfully completed in   0.1 seconds

Maximum memory used throughout the entire GTOINT-calculation: 8.9 MB


           ************************************************************
           *        Program running with 8 parallel MPI-processes     *
           *              working on a common directory               *
           ************************************************************

Diagonalization of the overlap matrix:
Smallest eigenvalue                        ... 2.645e-04
Time for diagonalization                   ...    0.002 sec
Threshold for overlap eigenvalues          ... 1.000e-08
Number of eigenvalues below threshold      ... 0
Time for construction of square roots      ...    0.001 sec
Total time needed                          ...    0.004 sec

-------------------
DFT GRID GENERATION
-------------------

General Integration Accuracy     IntAcc      ... 4.388
Radial Grid Type                 RadialGrid  ... OptM3 with GC (2021)
Angular Grid (max. ang.)         AngularGrid ... 4 (Lebedev-302)
Angular grid pruning method      GridPruning ... 4 (adaptive)
Weight generation scheme         WeightScheme... Becke
Basis function cutoff            BFCut       ... 1.0000e-11
Integration weight cutoff        WCut        ... 1.0000e-14
Angular grids for H and He will be reduced by one unit
Partially contracted basis set               ... off
Rotationally invariant grid construction     ... off

Total number of grid points                  ...    64515
Total number of batches                      ...     1015
Average number of points per batch           ...       63
Average number of grid points per atom       ...     4963
Time for grid setup =    0.285 sec

--------------
SCF ITERATIONS
--------------
ITER       Energy         Delta-E        Max-DP      RMS-DP      [F,P]     Damp
               ***  Starting incremental Fock matrix formation  ***
  0   -406.4132447364   0.000000000000 0.01568755  0.00058415  0.0062511 0.7000
                      *** Initiating the SOSCF procedure ***
                      *** Re-Reading the Fockian *** 
                      *** Removing any level shift *** 
ITER      Energy       Delta-E        Grad      Rot      Max-DP    RMS-DP
  1   -406.41344620  -0.0002014608  0.000514  0.000514  0.041672  0.001544
               *** Restarting incremental Fock matrix formation ***
  2   -406.41380953  -0.0003633305  0.001617  0.003619  0.004702  0.000199
  3   -406.41374954   0.0000599853  0.002182  0.002950  0.003773  0.000141
  4   -406.41384680  -0.0000972545  0.000333  0.000654  0.001759  0.000059
  5   -406.41384406   0.0000027335  0.000461  0.000453  0.000837  0.000033
  6   -406.41384954  -0.0000054807  0.000089  0.000540  0.000425  0.000016
  7   -406.41384901   0.0000005343  0.000200  0.000400  0.000295  0.000011
  8   -406.41384969  -0.0000006793  0.000016  0.000070  0.000082  0.000004
  9   -406.41384967   0.0000000213  0.000036  0.000046  0.000056  0.000002
 10   -406.41384970  -0.0000000311  0.000004  0.000016  0.000019  0.000001
 11   -406.41384970   0.0000000032  0.000007  0.000013  0.000009  0.000000
                  ***Gradient check signals convergence***
              ***Rediagonalizing the Fockian in SOSCF/NRSCF***

               *****************************************************
               *                     SUCCESS                       *
               *           SCF CONVERGED AFTER  12 CYCLES          *
               *****************************************************

Total Energy       :         -406.41384970 Eh          -11059.08308 eV
  Last Energy change         ...   -1.6077e-09  Tolerance :   1.0000e-08
  Last MAX-Density change    ...    6.3831e-06  Tolerance :   1.0000e-07
             **** THE GBW FILE WAS UPDATED (p-fluorophenol_opt_orca.gbw) ****
             **** DENSITY p-fluorophenol_opt_orca.scfp WAS UPDATED ****
             **** ENERGY FILE WAS UPDATED (p-fluorophenol_opt_orca.en.tmp) ****
             **** THE GBW FILE WAS UPDATED (p-fluorophenol_opt_orca.gbw) ****
             **** DENSITY p-fluorophenol_opt_orca.scfp WAS UPDATED ****
Total SCF time: 0 days 0 hours 0 min 1 sec 

Maximum memory used throughout the entire SCF-calculation: 17.7 MB


-------------------------------------------------------------------------------
                          DFT DISPERSION CORRECTION                            
                                                                               
                                 DFTD4 V2.5                                    
-------------------------------------------------------------------------------
Starting D4
[...]
  21   2.0000      -0.380164       -10.3448 
  22   2.0000      -0.365619        -9.9490 
  23   2.0000      -0.358289        -9.7495 
  24   2.0000      -0.323379        -8.7996 
  25   2.0000      -0.301128        -8.1941 
  26   2.0000      -0.290918        -7.9163 
  27   2.0000      -0.240845        -6.5537 
  28   2.0000      -0.196630        -5.3506 
  29   0.0000      -0.052414        -1.4262 
  30   0.0000      -0.025056        -0.6818 
  31   0.0000       0.019564         0.5324 
  32   0.0000       0.039348         1.0707 
  33   0.0000       0.077838         2.1181 
  34   0.0000       0.103942         2.8284 
  35   0.0000       0.104746         2.8503 
  36   0.0000       0.121741         3.3127 
  37   0.0000       0.126741         3.4488 
  38   0.0000       0.177194         4.8217 
  39   0.0000       0.222262         6.0481 
  40   0.0000       0.263098         7.1593 
  41   0.0000       0.267185         7.2705 
  42   0.0000       0.279606         7.6085 
  43   0.0000       0.309530         8.4227 
  44   0.0000       0.335587         9.1318 
  45   0.0000       0.369022        10.0416 
  46   0.0000       0.416379        11.3303 
  47   0.0000       0.416807        11.3419 
  48   0.0000       0.429044        11.6749 
  49   0.0000       0.439388        11.9564 
  50   0.0000       0.465184        12.6583 
  51   0.0000       0.473306        12.8793 
  52   0.0000       0.487307        13.2603 
  53   0.0000       0.495635        13.4869 
  54   0.0000       0.507933        13.8216 
  55   0.0000       0.542130        14.7521 
  56   0.0000       0.546155        14.8616 
  57   0.0000       0.562100        15.2955 
  58   0.0000       0.577756        15.7216 
  59   0.0000       0.616915        16.7871 
  60   0.0000       0.636445        17.3185 
  61   0.0000       0.641888        17.4667 
  62   0.0000       0.649987        17.6870 
  63   0.0000       0.667532        18.1645 
  64   0.0000       0.700339        19.0572 
  65   0.0000       0.707667        19.2566 
  66   0.0000       0.717030        19.5114 
  67   0.0000       0.756311        20.5803 
  68   0.0000       0.830542        22.6002 
  69   0.0000       0.882465        24.0131 
  70   0.0000       0.897927        24.4338 
  71   0.0000       0.909426        24.7467 
  72   0.0000       0.997170        27.1344 
  73   0.0000       1.026542        27.9336 
  74   0.0000       1.091715        29.7071 
  75   0.0000       1.152200        31.3530 
  76   0.0000       1.161003        31.5925 
  77   0.0000       1.168558        31.7981 
  78   0.0000       1.178078        32.0571 
  79   0.0000       1.196312        32.5533 
  80   0.0000       1.208267        32.8786 
  81   0.0000       1.217509        33.1301 
  82   0.0000       1.289527        35.0898 
  83   0.0000       1.389401        37.8075 
  84   0.0000       1.401162        38.1275 
  85   0.0000       1.437038        39.1038 
  86   0.0000       1.466839        39.9147 
  87   0.0000       1.494343        40.6632 
  88   0.0000       1.583463        43.0882 
  89   0.0000       1.596838        43.4522 
  90   0.0000       1.634392        44.4741 
  91   0.0000       1.652899        44.9777 
  92   0.0000       1.657132        45.0929 
  93   0.0000       1.664431        45.2915 
  94   0.0000       1.669608        45.4323 
  95   0.0000       1.713654        46.6309 
  96   0.0000       1.728481        47.0344 
  97   0.0000       1.744321        47.4654 
  98   0.0000       1.774710        48.2923 
  99   0.0000       1.786502        48.6132 
 100   0.0000       1.814629        49.3786 
 101   0.0000       1.884855        51.2895 
 102   0.0000       1.888344        51.3845 
 103   0.0000       1.979677        53.8698 
 104   0.0000       1.983449        53.9724 
 105   0.0000       2.024099        55.0785 
 106   0.0000       2.051722        55.8302 
 107   0.0000       2.066685        56.2374 
 108   0.0000       2.093404        56.9644 
 109   0.0000       2.145605        58.3849 
 110   0.0000       2.170757        59.0693 
 111   0.0000       2.184169        59.4343 
 112   0.0000       2.196347        59.7656 
 113   0.0000       2.248505        61.1849 
 114   0.0000       2.266119        61.6642 
 115   0.0000       2.327213        63.3267 
 116   0.0000       2.458264        66.8928 
 117   0.0000       2.506902        68.2163 
 118   0.0000       2.508177        68.2510 
 119   0.0000       2.509392        68.2840 
 120   0.0000       2.615542        71.1725 
 121   0.0000       2.723777        74.1177 
 122   0.0000       2.736132        74.4539 
 123   0.0000       2.761315        75.1392 
 124   0.0000       2.789479        75.9056 
 125   0.0000       2.805762        76.3487 
 126   0.0000       2.874379        78.2158 
 127   0.0000       2.984575        81.2144 
 128   0.0000       3.003370        81.7258 
 129   0.0000       3.024238        82.2937 
 130   0.0000       3.128393        85.1279 
 131   0.0000       3.211397        87.3866 
 132   0.0000       3.255255        88.5800 
 133   0.0000       3.394764        92.3762 
 134   0.0000       3.457921        94.0948 
 135   0.0000       3.667524        99.7984 
 136   0.0000       3.781079       102.8884 

                    ********************************
                    * MULLIKEN POPULATION ANALYSIS *
                    ********************************

-----------------------
MULLIKEN ATOMIC CHARGES
-----------------------
   0 C :   -0.064982
   1 C :   -0.076711
   2 C :    0.257904
   3 C :   -0.071515
   4 C :   -0.036282
   5 C :    0.136816
   6 O :   -0.171925
   7 F :   -0.174568
   8 H :   -0.012291
   9 H :    0.011405
  10 H :    0.013203
  11 H :    0.007553
  12 H :    0.181393
Sum of atomic charges:    0.0000000

--------------------------------
MULLIKEN REDUCED ORBITAL CHARGES
--------------------------------
  0 C s       :     3.215772  s :     3.215772
      pz      :     1.050799  p :     2.819061
      px      :     0.906420
      py      :     0.861843
      dz2     :     0.003913  d :     0.030148
      dxz     :     0.004796
      dyz     :     0.003897
      dx2y2   :     0.007299
      dxy     :     0.010244
  1 C s       :     3.246921  s :     3.246921
      pz      :     0.999403  p :     2.799116
      px      :     0.912851
      py      :     0.886862
      dz2     :     0.003043  d :     0.030673
      dxz     :     0.005718
      dyz     :     0.004261
      dx2y2   :     0.007701
      dxy     :     0.009949
  2 C s       :     2.971179  s :     2.971179
      pz      :     0.994175  p :     2.693794
      px      :     0.707542
      py      :     0.992076
      dz2     :     0.007907  d :     0.077124
      dxz     :     0.016024
      dyz     :     0.008239
      dx2y2   :     0.024139
      dxy     :     0.020815
  3 C s       :     3.247667  s :     3.247667
      pz      :     1.010611  p :     2.793110
      px      :     0.891168
      py      :     0.891332
      dz2     :     0.004027  d :     0.030738
      dxz     :     0.004892
      dyz     :     0.004302
      dx2y2   :     0.007257
      dxy     :     0.010260
  4 C s       :     3.245694  s :     3.245694
      pz      :     0.999238  p :     2.760869
      px      :     0.883498
      py      :     0.878134
      dz2     :     0.002953  d :     0.029719
      dxz     :     0.005297
      dyz     :     0.003915
      dx2y2   :     0.007624
      dxy     :     0.009930
  5 C s       :     2.968692  s :     2.968692
      pz      :     0.974085  p :     2.823255
      px      :     0.823837
      py      :     1.025332
      dz2     :     0.008192  d :     0.071236
      dxz     :     0.015907
      dyz     :     0.007620
      dx2y2   :     0.021012
      dxy     :     0.018505
  6 O s       :     3.682826  s :     3.682826
      pz      :     1.759980  p :     4.475529
      px      :     1.308622
      py      :     1.406927
      dz2     :     0.002159  d :     0.013570
      dxz     :     0.002705
      dyz     :     0.001097
      dx2y2   :     0.004544
      dxy     :     0.003065
  7 F s       :     3.891274  s :     3.891274
      pz      :     1.842550  p :     5.275565
      px      :     1.518945
      py      :     1.914070
      dz2     :     0.001041  d :     0.007729
      dxz     :     0.002382
      dyz     :     0.000197
      dx2y2   :     0.002570
      dxy     :     0.001540
  8 H s       :     0.990268  s :     0.990268
      pz      :     0.005216  p :     0.022023
      px      :     0.006279
      py      :     0.010528
  9 H s       :     0.966637  s :     0.966637
      pz      :     0.005861  p :     0.021958
      px      :     0.005311
      py      :     0.010786
 10 H s       :     0.964924  s :     0.964924
      pz      :     0.004734  p :     0.021873
      px      :     0.006796
      py      :     0.010343
 11 H s       :     0.970543  s :     0.970543
      pz      :     0.005853  p :     0.021904
      px      :     0.005307
      py      :     0.010744
 12 H s       :     0.751296  s :     0.751296
      pz      :     0.017757  p :     0.067312
      px      :     0.018668
      py      :     0.030887


                     *******************************
                     * LOEWDIN POPULATION ANALYSIS *
                     *******************************

----------------------
LOEWDIN ATOMIC CHARGES
----------------------
   0 C :   -0.078012
   1 C :   -0.053964
   2 C :    0.051842
   3 C :   -0.051351
   4 C :   -0.048134
   5 C :    0.028332
   6 O :   -0.043082
   7 F :   -0.058100
   8 H :    0.030651
   9 H :    0.041865
  10 H :    0.042598
  11 H :    0.040253
  12 H :    0.097103

-------------------------------
LOEWDIN REDUCED ORBITAL CHARGES
-------------------------------
  0 C s       :     2.871441  s :     2.871441
      pz      :     1.043798  p :     3.122561
      px      :     1.050564
      py      :     1.028199
      dz2     :     0.008837  d :     0.084010
      dxz     :     0.012139
      dyz     :     0.009363
      dx2y2   :     0.023571
      dxy     :     0.030100
  1 C s       :     2.873481  s :     2.873481
      pz      :     1.009846  p :     3.096104
      px      :     1.047328
      py      :     1.038930
      dz2     :     0.007358  d :     0.084379
      dxz     :     0.013963
      dyz     :     0.009392
      dx2y2   :     0.024207
      dxy     :     0.029460
  2 C s       :     2.857556  s :     2.857556
      pz      :     0.998759  p :     2.909320
      px      :     0.813280
      py      :     1.097281
      dz2     :     0.016656  d :     0.181282
      dxz     :     0.033278
      dyz     :     0.018918
      dx2y2   :     0.057160
      dxy     :     0.055270
  3 C s       :     2.873807  s :     2.873807
      pz      :     1.006954  p :     3.093164
      px      :     1.048675
      py      :     1.037535
      dz2     :     0.009218  d :     0.084380
      dxz     :     0.012181
      dyz     :     0.010187
      dx2y2   :     0.023192
      dxy     :     0.029603
  4 C s       :     2.871407  s :     2.871407
      pz      :     1.016020  p :     3.094279
      px      :     1.044000
      py      :     1.034260
      dz2     :     0.006963  d :     0.082448
      dxz     :     0.012875
      dyz     :     0.008785
      dx2y2   :     0.024176
      dxy     :     0.029650
  5 C s       :     2.847337  s :     2.847337
      pz      :     0.975224  p :     2.959130
      px      :     0.889667
      py      :     1.094239
      dz2     :     0.016981  d :     0.165201
      dxz     :     0.033220
      dyz     :     0.017177
      dx2y2   :     0.050887
      dxy     :     0.046937
  6 O s       :     3.428840  s :     3.428840
      pz      :     1.738994  p :     4.587924
      px      :     1.359116
      py      :     1.489814
      dz2     :     0.004000  d :     0.026318
      dxz     :     0.005035
      dyz     :     0.000882
      dx2y2   :     0.009730
      dxy     :     0.006670
  7 F s       :     3.728863  s :     3.728863
      pz      :     1.845895  p :     5.316917
      px      :     1.557545
      py      :     1.913477
      dz2     :     0.001633  d :     0.012319
      dxz     :     0.003774
      dyz     :     0.000280
      dx2y2   :     0.004407
      dxy     :     0.002225
  8 H s       :     0.902186  s :     0.902186
      pz      :     0.015303  p :     0.067162
      px      :     0.019183
      py      :     0.032676
  9 H s       :     0.890569  s :     0.890569
      pz      :     0.017542  p :     0.067566
      px      :     0.016107
      py      :     0.033917
 10 H s       :     0.890040  s :     0.890040
      pz      :     0.014130  p :     0.067362
      px      :     0.020689
      py      :     0.032543
 11 H s       :     0.891934  s :     0.891934
      pz      :     0.017678  p :     0.067813
      px      :     0.016021
      py      :     0.034113
 12 H s       :     0.731244  s :     0.731244
      pz      :     0.045352  p :     0.171653
      px      :     0.041101
      py      :     0.085200


                      *****************************
                      * MAYER POPULATION ANALYSIS *
                      *****************************

  NA   - Mulliken gross atomic population
  ZA   - Total nuclear charge
  QA   - Mulliken gross atomic charge
  VA   - Mayer's total valence
  BVA  - Mayer's bonded valence
  FA   - Mayer's free valence

  ATOM       NA         ZA         QA         VA         BVA        FA
  0 C      6.0650     6.0000    -0.0650     3.7699     3.7699     0.0000
  1 C      6.0767     6.0000    -0.0767     3.8288     3.8288    -0.0000
  2 C      5.7421     6.0000     0.2579     3.9054     3.9054     0.0000
  3 C      6.0715     6.0000    -0.0715     3.8038     3.8038     0.0000
  4 C      6.0363     6.0000    -0.0363     3.8168     3.8168     0.0000
  5 C      5.8632     6.0000     0.1368     4.0027     4.0027    -0.0000
  6 O      8.1719     8.0000    -0.1719     2.2752     2.2752     0.0000
  7 F      9.1746     9.0000    -0.1746     1.2054     1.2054    -0.0000
  8 H      1.0123     1.0000    -0.0123     0.9908     0.9908     0.0000
  9 H      0.9886     1.0000     0.0114     0.9926     0.9926     0.0000
 10 H      0.9868     1.0000     0.0132     0.9926     0.9926    -0.0000
 11 H      0.9924     1.0000     0.0076     0.9951     0.9951     0.0000
 12 H      0.8186     1.0000     0.1814     1.0092     1.0092     0.0000

  Mayer bond orders larger than 0.100000
B(  0-C ,  1-C ) :   1.3442 B(  0-C ,  5-C ) :   1.3180 B(  0-C ,  8-H ) :   0.9696 
B(  1-C ,  2-C ) :   1.3603 B(  1-C ,  9-H ) :   0.9746 B(  2-C ,  3-C ) :   1.3410 
B(  2-C ,  7-F ) :   1.0936 B(  3-C ,  4-C ) :   1.3595 B(  3-C , 10-H ) :   0.9782 
B(  4-C ,  5-C ) :   1.3453 B(  4-C , 11-H ) :   0.9784 B(  5-C ,  6-O ) :   1.2040 
B(  6-O , 12-H ) :   0.9588 


------------------
HIRSHFELD ANALYSIS
------------------

Total integrated alpha density =     28.999996264
Total integrated beta density  =     28.999996264

  ATOM     CHARGE      SPIN    
   0 C   -0.063255    0.000000
   1 C   -0.052329    0.000000
   2 C    0.079850    0.000000
   3 C   -0.049349    0.000000
   4 C   -0.049025    0.000000
   5 C    0.071759    0.000000
   6 O   -0.183163    0.000000
   7 F   -0.100692    0.000000
   8 H    0.034556    0.000000
   9 H    0.045123    0.000000
  10 H    0.045764    0.000000
  11 H    0.043738    0.000000
  12 H    0.177030    0.000000

  TOTAL   0.000007    0.000000

-------
TIMINGS
-------

Total SCF time: 0 days 0 hours 0 min 1 sec 

Total time                  ....       1.254 sec
Sum of individual times     ....       1.147 sec  ( 91.4%)

Fock matrix formation       ....       0.747 sec  ( 59.6%)
  Split-RI-J                ....       0.223 sec  ( 29.9% of F)
  XC integration            ....       0.520 sec  ( 69.5% of F)
    Basis function eval.    ....       0.163 sec  ( 31.4% of XC)
    Density eval.           ....       0.097 sec  ( 18.7% of XC)
    XC-Functional eval.     ....       0.048 sec  (  9.3% of XC)
    XC-Potential eval.      ....       0.062 sec  ( 11.9% of XC)
Diagonalization             ....       0.004 sec  (  0.3%)
Density matrix formation    ....       0.003 sec  (  0.2%)
Population analysis         ....       0.079 sec  (  6.3%)
Initial guess               ....       0.004 sec  (  0.4%)
Orbital Transformation      ....       0.000 sec  (  0.0%)
Orbital Orthonormalization  ....       0.002 sec  (  0.2%)
DIIS solution               ....       0.003 sec  (  0.2%)
SOSCF solution              ....       0.020 sec  (  1.6%)
Grid generation             ....       0.286 sec  ( 22.8%)

Maximum memory used throughout the entire SCF-calculation: 17.6 MB


-------------------------------------------------------------------------------
                          DFT DISPERSION CORRECTION                            
                                                                               
                                 DFTD4 V2.5                                    
-------------------------------------------------------------------------------
The BP86 functional is recognized
Active option DFTDOPT                   ...         5   

Starting D4
-------------------------   ----------------
Dispersion correction           -0.016274185
-------------------------   ----------------


-------------------------   --------------------
FINAL SINGLE POINT ENERGY      -406.430253918091
-------------------------   --------------------

                                *** OPTIMIZATION RUN DONE ***

                            ***************************************
                            *     ORCA property calculations      *
                            ***************************************

                                    ---------------------
                                    Active property flags
                                    ---------------------
   (+) Dipole Moment


------------------------------------------------------------------------------
                       ORCA ELECTRIC PROPERTIES CALCULATION
------------------------------------------------------------------------------

Dipole Moment Calculation                       ... on
Quadrupole Moment Calculation                   ... off
Polarizability Calculation                      ... off
GBWName                                         ... p-fluorophenol_opt_orca.gbw
Electron density                                ... p-fluorophenol_opt_orca.scfp
The origin for moment calculation is the CENTER OF MASS  = (-0.512727,  0.101919  0.153655)

-------------
DIPOLE MOMENT
-------------
                                X             Y             Z
Electronic contribution:     -4.75785       0.16009       1.59129
Nuclear contribution   :      5.39787      -0.64606      -1.70741
                        -----------------------------------------
Total Dipole Moment    :      0.64002      -0.48597      -0.11612
                        -----------------------------------------
Magnitude (a.u.)       :      0.81196
Magnitude (Debye)      :      2.06383



--------------------
Rotational spectrum 
--------------------
 
Rotational constants in cm-1:     0.185107     0.047741     0.037953 
Rotational constants in MHz :  5549.362855  1431.252153  1137.799133 

 Dipole components along the rotational axes: 
x,y,z [a.u.] :     0.629076     0.513358     0.000000 
x,y,z [Debye]:     1.598985     1.304851     0.000001 

 

Timings for individual modules:

Sum of individual times         ...       32.210 sec (=   0.537 min)
GTO integral calculation        ...        8.042 sec (=   0.134 min)  25.0 %
SCF iterations                  ...       15.333 sec (=   0.256 min)  47.6 %
SCF Gradient evaluation         ...        8.698 sec (=   0.145 min)  27.0 %
Geometry relaxation             ...        0.137 sec (=   0.002 min)   0.4 %
                             ****ORCA TERMINATED NORMALLY****
TOTAL RUN TIME: 0 days 0 hours 0 minutes 38 seconds 396 msec
